+ 0.1 0 1 tcp 40 ------- 0 0.0 1.0 0 0
- 0.1 0 1 tcp 40 ------- 0 0.0 1.0 0 0
r 0.11032 0 1 tcp 40 ------- 0 0.0 1.0 0 0
+ 0.11032 1 0 ack 40 ------- 0 1.0 0.0 0 1
- 0.11032 1 0 ack 40 ------- 0 1.0 0.0 0 1
r 0.12064 1 0 ack 40 ------- 0 1.0 0.0 0 1
+ 0.12064 0 1 tcp 1040 ------- 0 0.0 1.0 1 2
- 0.12064 0 1 tcp 1040 ------- 0 0.0 1.0 1 2
r 0.13896 0 1 tcp 1040 ------- 0 0.0 1.0 1 2
+ 0.13896 1 0 ack 40 ------- 0 1.0 0.0 1 3
- 0.13896 1 0 ack 40 ------- 0 1.0 0.0 1 3
r 0.14928 1 0 ack 40 ------- 0 1.0 0.0 1 3
