n -t 0 -s 0 -S DLABEL -l "TCPSource" -L ""
n -t 0 -s 1 -S DLABEL -l "Node 2" -L ""
n -t 0 -s 2 -S DLABEL -l "Node 3" -L ""
n -t 0 -s 3 -S DLABEL -l "Sink" -L ""
V -t * -v 1.0a5 -a 0
A -t * -n 1 -p 0 -o 0x7fffffff -c 30 -a 1
A -t * -h 1 -m 1073741823 -s 0
c -t * -i 1 -n blue
n -t * -a 0 -s 0 -S UP -v circle -c black -i black
n -t * -a 1 -s 1 -S UP -v circle -c black -i black
n -t * -a 2 -s 2 -S UP -v circle -c black -i black
n -t * -a 3 -s 3 -S UP -v circle -c black -i black
l -t * -s 0 -d 1 -S UP -r 200000 -D 0.0050000000000000001 -c black -o right
l -t * -s 1 -d 2 -S UP -r 300000 -D 0.01 -c black -o right
l -t * -s 2 -d 3 -S UP -r 400000 -D 0.014999999999999999 -c black -o right
+ -t 0.1 -s 0 -d 1 -p tcp -e 40 -c 0 -i 0 -a 0 -x {0.0 3.0 0 ------- null}
- -t 0.1 -s 0 -d 1 -p tcp -e 40 -c 0 -i 0 -a 0 -x {0.0 3.0 0 ------- null}
h -t 0.1 -s 0 -d 1 -p tcp -e 40 -c 0 -i 0 -a 0 -x {0.0 3.0 -1 ------- null}
r -t 0.1066 -s 0 -d 1 -p tcp -e 40 -c 0 -i 0 -a 0 -x {0.0 3.0 0 ------- null}
+ -t 0.1066 -s 1 -d 2 -p tcp -e 40 -c 0 -i 0 -a 0 -x {0.0 3.0 0 ------- null}
- -t 0.1066 -s 1 -d 2 -p tcp -e 40 -c 0 -i 0 -a 0 -x {0.0 3.0 0 ------- null}
h -t 0.1066 -s 1 -d 2 -p tcp -e 40 -c 0 -i 0 -a 0 -x {0.0 3.0 -1 ------- null}
r -t 0.117666666666667 -s 1 -d 2 -p tcp -e 40 -c 0 -i 0 -a 0 -x {0.0 3.0 0 ------- null}
+ -t 0.117666666666667 -s 2 -d 3 -p tcp -e 40 -c 0 -i 0 -a 0 -x {0.0 3.0 0 ------- null}
- -t 0.117666666666667 -s 2 -d 3 -p tcp -e 40 -c 0 -i 0 -a 0 -x {0.0 3.0 0 ------- null}
h -t 0.117666666666667 -s 2 -d 3 -p tcp -e 40 -c 0 -i 0 -a 0 -x {0.0 3.0 -1 ------- null}
r -t 0.133466666666667 -s 2 -d 3 -p tcp -e 40 -c 0 -i 0 -a 0 -x {0.0 3.0 0 ------- null}
+ -t 0.133466666666667 -s 3 -d 2 -p ack -e 40 -c 0 -i 1 -a 0 -x {3.0 0.0 0 ------- null}
- -t 0.133466666666667 -s 3 -d 2 -p ack -e 40 -c 0 -i 1 -a 0 -x {3.0 0.0 0 ------- null}
h -t 0.133466666666667 -s 3 -d 2 -p ack -e 40 -c 0 -i 1 -a 0 -x {3.0 0.0 -1 ------- null}
r -t 0.149266666666667 -s 3 -d 2 -p ack -e 40 -c 0 -i 1 -a 0 -x {3.0 0.0 0 ------- null}
+ -t 0.149266666666667 -s 2 -d 1 -p ack -e 40 -c 0 -i 1 -a 0 -x {3.0 0.0 0 ------- null}
- -t 0.149266666666667 -s 2 -d 1 -p ack -e 40 -c 0 -i 1 -a 0 -x {3.0 0.0 0 ------- null}
h -t 0.149266666666667 -s 2 -d 1 -p ack -e 40 -c 0 -i 1 -a 0 -x {3.0 0.0 -1 ------- null}
r -t 0.160333333333333 -s 2 -d 1 -p ack -e 40 -c 0 -i 1 -a 0 -x {3.0 0.0 0 ------- null}
+ -t 0.160333333333333 -s 1 -d 0 -p ack -e 40 -c 0 -i 1 -a 0 -x {3.0 0.0 0 ------- null}
- -t 0.160333333333333 -s 1 -d 0 -p ack -e 40 -c 0 -i 1 -a 0 -x {3.0 0.0 0 ------- null}
h -t 0.160333333333333 -s 1 -d 0 -p ack -e 40 -c 0 -i 1 -a 0 -x {3.0 0.0 -1 ------- null}
r -t 0.166933333333333 -s 1 -d 0 -p ack -e 40 -c 0 -i 1 -a 0 -x {3.0 0.0 0 ------- null}
+ -t 0.166933333333333 -s 0 -d 1 -p tcp -e 1040 -c 0 -i 2 -a 0 -x {0.0 3.0 1 ------- null}
- -t 0.166933333333333 -s 0 -d 1 -p tcp -e 1040 -c 0 -i 2 -a 0 -x {0.0 3.0 1 ------- null}
h -t 0.166933333333333 -s 0 -d 1 -p tcp -e 1040 -c 0 -i 2 -a 0 -x {0.0 3.0 -1 ------- null}
+ -t 0.166933333333333 -s 0 -d 1 -p tcp -e 1040 -c 0 -i 3 -a 0 -x {0.0 3.0 2 ------- null}
- -t 0.208533333333333 -s 0 -d 1 -p tcp -e 1040 -c 0 -i 3 -a 0 -x {0.0 3.0 2 ------- null}
h -t 0.208533333333333 -s 0 -d 1 -p tcp -e 1040 -c 0 -i 3 -a 0 -x {0.0 3.0 -1 ------- null}
r -t 0.213533333333333 -s 0 -d 1 -p tcp -e 1040 -c 0 -i 2 -a 0 -x {0.0 3.0 1 ------- null}
+ -t 0.213533333333333 -s 1 -d 2 -p tcp -e 1040 -c 0 -i 2 -a 0 -x {0.0 3.0 1 ------- null}
- -t 0.213533333333333 -s 1 -d 2 -p tcp -e 1040 -c 0 -i 2 -a 0 -x {0.0 3.0 1 ------- null}
h -t 0.213533333333333 -s 1 -d 2 -p tcp -e 1040 -c 0 -i 2 -a 0 -x {0.0 3.0 -1 ------- null}
r -t 0.251266666666667 -s 1 -d 2 -p tcp -e 1040 -c 0 -i 2 -a 0 -x {0.0 3.0 1 ------- null}
+ -t 0.251266666666667 -s 2 -d 3 -p tcp -e 1040 -c 0 -i 2 -a 0 -x {0.0 3.0 1 ------- null}
- -t 0.251266666666667 -s 2 -d 3 -p tcp -e 1040 -c 0 -i 2 -a 0 -x {0.0 3.0 1 ------- null}
h -t 0.251266666666667 -s 2 -d 3 -p tcp -e 1040 -c 0 -i 2 -a 0 -x {0.0 3.0 -1 ------- null}
r -t 0.255133333333333 -s 0 -d 1 -p tcp -e 1040 -c 0 -i 3 -a 0 -x {0.0 3.0 2 ------- null}
+ -t 0.255133333333333 -s 1 -d 2 -p tcp -e 1040 -c 0 -i 3 -a 0 -x {0.0 3.0 2 ------- null}
- -t 0.255133333333333 -s 1 -d 2 -p tcp -e 1040 -c 0 -i 3 -a 0 -x {0.0 3.0 2 ------- null}
h -t 0.255133333333333 -s 1 -d 2 -p tcp -e 1040 -c 0 -i 3 -a 0 -x {0.0 3.0 -1 ------- null}
r -t 0.287066666666667 -s 2 -d 3 -p tcp -e 1040 -c 0 -i 2 -a 0 -x {0.0 3.0 1 ------- null}
+ -t 0.287066666666667 -s 3 -d 2 -p ack -e 40 -c 0 -i 4 -a 0 -x {3.0 0.0 1 ------- null}
- -t 0.287066666666667 -s 3 -d 2 -p ack -e 40 -c 0 -i 4 -a 0 -x {3.0 0.0 1 ------- null}
h -t 0.287066666666667 -s 3 -d 2 -p ack -e 40 -c 0 -i 4 -a 0 -x {3.0 0.0 -1 ------- null}
r -t 0.292866666666667 -s 1 -d 2 -p tcp -e 1040 -c 0 -i 3 -a 0 -x {0.0 3.0 2 ------- null}
+ -t 0.292866666666667 -s 2 -d 3 -p tcp -e 1040 -c 0 -i 3 -a 0 -x {0.0 3.0 2 ------- null}
- -t 0.292866666666667 -s 2 -d 3 -p tcp -e 1040 -c 0 -i 3 -a 0 -x {0.0 3.0 2 ------- null}
h -t 0.292866666666667 -s 2 -d 3 -p tcp -e 1040 -c 0 -i 3 -a 0 -x {0.0 3.0 -1 ------- null}
r -t 0.302866666666667 -s 3 -d 2 -p ack -e 40 -c 0 -i 4 -a 0 -x {3.0 0.0 1 ------- null}
+ -t 0.302866666666667 -s 2 -d 1 -p ack -e 40 -c 0 -i 4 -a 0 -x {3.0 0.0 1 ------- null}
- -t 0.302866666666667 -s 2 -d 1 -p ack -e 40 -c 0 -i 4 -a 0 -x {3.0 0.0 1 ------- null}
h -t 0.302866666666667 -s 2 -d 1 -p ack -e 40 -c 0 -i 4 -a 0 -x {3.0 0.0 -1 ------- null}
r -t 0.313933333333333 -s 2 -d 1 -p ack -e 40 -c 0 -i 4 -a 0 -x {3.0 0.0 1 ------- null}
+ -t 0.313933333333333 -s 1 -d 0 -p ack -e 40 -c 0 -i 4 -a 0 -x {3.0 0.0 1 ------- null}
- -t 0.313933333333333 -s 1 -d 0 -p ack -e 40 -c 0 -i 4 -a 0 -x {3.0 0.0 1 ------- null}
h -t 0.313933333333333 -s 1 -d 0 -p ack -e 40 -c 0 -i 4 -a 0 -x {3.0 0.0 -1 ------- null}
r -t 0.320533333333333 -s 1 -d 0 -p ack -e 40 -c 0 -i 4 -a 0 -x {3.0 0.0 1 ------- null}
+ -t 0.320533333333333 -s 0 -d 1 -p tcp -e 1040 -c 0 -i 5 -a 0 -x {0.0 3.0 3 ------- null}
- -t 0.320533333333333 -s 0 -d 1 -p tcp -e 1040 -c 0 -i 5 -a 0 -x {0.0 3.0 3 ------- null}
h -t 0.320533333333333 -s 0 -d 1 -p tcp -e 1040 -c 0 -i 5 -a 0 -x {0.0 3.0 -1 ------- null}
+ -t 0.320533333333333 -s 0 -d 1 -p tcp -e 1040 -c 0 -i 6 -a 0 -x {0.0 3.0 4 ------- null}
r -t 0.328666666666667 -s 2 -d 3 -p tcp -e 1040 -c 0 -i 3 -a 0 -x {0.0 3.0 2 ------- null}
+ -t 0.328666666666667 -s 3 -d 2 -p ack -e 40 -c 0 -i 7 -a 0 -x {3.0 0.0 2 ------- null}
- -t 0.328666666666667 -s 3 -d 2 -p ack -e 40 -c 0 -i 7 -a 0 -x {3.0 0.0 2 ------- null}
h -t 0.328666666666667 -s 3 -d 2 -p ack -e 40 -c 0 -i 7 -a 0 -x {3.0 0.0 -1 ------- null}
r -t 0.344466666666667 -s 3 -d 2 -p ack -e 40 -c 0 -i 7 -a 0 -x {3.0 0.0 2 ------- null}
+ -t 0.344466666666667 -s 2 -d 1 -p ack -e 40 -c 0 -i 7 -a 0 -x {3.0 0.0 2 ------- null}
- -t 0.344466666666667 -s 2 -d 1 -p ack -e 40 -c 0 -i 7 -a 0 -x {3.0 0.0 2 ------- null}
h -t 0.344466666666667 -s 2 -d 1 -p ack -e 40 -c 0 -i 7 -a 0 -x {3.0 0.0 -1 ------- null}
r -t 0.355533333333333 -s 2 -d 1 -p ack -e 40 -c 0 -i 7 -a 0 -x {3.0 0.0 2 ------- null}
+ -t 0.355533333333333 -s 1 -d 0 -p ack -e 40 -c 0 -i 7 -a 0 -x {3.0 0.0 2 ------- null}
- -t 0.355533333333333 -s 1 -d 0 -p ack -e 40 -c 0 -i 7 -a 0 -x {3.0 0.0 2 ------- null}
h -t 0.355533333333333 -s 1 -d 0 -p ack -e 40 -c 0 -i 7 -a 0 -x {3.0 0.0 -1 ------- null}
- -t 0.362133333333333 -s 0 -d 1 -p tcp -e 1040 -c 0 -i 6 -a 0 -x {0.0 3.0 4 ------- null}
h -t 0.362133333333333 -s 0 -d 1 -p tcp -e 1040 -c 0 -i 6 -a 0 -x {0.0 3.0 -1 ------- null}
r -t 0.362133333333333 -s 1 -d 0 -p ack -e 40 -c 0 -i 7 -a 0 -x {3.0 0.0 2 ------- null}
+ -t 0.362133333333333 -s 0 -d 1 -p tcp -e 1040 -c 0 -i 8 -a 0 -x {0.0 3.0 5 ------- null}
+ -t 0.362133333333333 -s 0 -d 1 -p tcp -e 1040 -c 0 -i 9 -a 0 -x {0.0 3.0 6 ------- null}
r -t 0.367133333333333 -s 0 -d 1 -p tcp -e 1040 -c 0 -i 5 -a 0 -x {0.0 3.0 3 ------- null}
+ -t 0.367133333333333 -s 1 -d 2 -p tcp -e 1040 -c 0 -i 5 -a 0 -x {0.0 3.0 3 ------- null}
- -t 0.367133333333333 -s 1 -d 2 -p tcp -e 1040 -c 0 -i 5 -a 0 -x {0.0 3.0 3 ------- null}
h -t 0.367133333333333 -s 1 -d 2 -p tcp -e 1040 -c 0 -i 5 -a 0 -x {0.0 3.0 -1 ------- null}
- -t 0.403733333333333 -s 0 -d 1 -p tcp -e 1040 -c 0 -i 8 -a 0 -x {0.0 3.0 5 ------- null}
h -t 0.403733333333333 -s 0 -d 1 -p tcp -e 1040 -c 0 -i 8 -a 0 -x {0.0 3.0 -1 ------- null}
r -t 0.404866666666667 -s 1 -d 2 -p tcp -e 1040 -c 0 -i 5 -a 0 -x {0.0 3.0 3 ------- null}
+ -t 0.404866666666667 -s 2 -d 3 -p tcp -e 1040 -c 0 -i 5 -a 0 -x {0.0 3.0 3 ------- null}
- -t 0.404866666666667 -s 2 -d 3 -p tcp -e 1040 -c 0 -i 5 -a 0 -x {0.0 3.0 3 ------- null}
h -t 0.404866666666667 -s 2 -d 3 -p tcp -e 1040 -c 0 -i 5 -a 0 -x {0.0 3.0 -1 ------- null}
r -t 0.408733333333333 -s 0 -d 1 -p tcp -e 1040 -c 0 -i 6 -a 0 -x {0.0 3.0 4 ------- null}
+ -t 0.408733333333333 -s 1 -d 2 -p tcp -e 1040 -c 0 -i 6 -a 0 -x {0.0 3.0 4 ------- null}
- -t 0.408733333333333 -s 1 -d 2 -p tcp -e 1040 -c 0 -i 6 -a 0 -x {0.0 3.0 4 ------- null}
h -t 0.408733333333333 -s 1 -d 2 -p tcp -e 1040 -c 0 -i 6 -a 0 -x {0.0 3.0 -1 ------- null}
r -t 0.440666666666667 -s 2 -d 3 -p tcp -e 1040 -c 0 -i 5 -a 0 -x {0.0 3.0 3 ------- null}
+ -t 0.440666666666667 -s 3 -d 2 -p ack -e 40 -c 0 -i 10 -a 0 -x {3.0 0.0 3 ------- null}
- -t 0.440666666666667 -s 3 -d 2 -p ack -e 40 -c 0 -i 10 -a 0 -x {3.0 0.0 3 ------- null}
h -t 0.440666666666667 -s 3 -d 2 -p ack -e 40 -c 0 -i 10 -a 0 -x {3.0 0.0 -1 ------- null}
- -t 0.445333333333333 -s 0 -d 1 -p tcp -e 1040 -c 0 -i 9 -a 0 -x {0.0 3.0 6 ------- null}
h -t 0.445333333333333 -s 0 -d 1 -p tcp -e 1040 -c 0 -i 9 -a 0 -x {0.0 3.0 -1 ------- null}
r -t 0.446466666666667 -s 1 -d 2 -p tcp -e 1040 -c 0 -i 6 -a 0 -x {0.0 3.0 4 ------- null}
+ -t 0.446466666666667 -s 2 -d 3 -p tcp -e 1040 -c 0 -i 6 -a 0 -x {0.0 3.0 4 ------- null}
- -t 0.446466666666667 -s 2 -d 3 -p tcp -e 1040 -c 0 -i 6 -a 0 -x {0.0 3.0 4 ------- null}
h -t 0.446466666666667 -s 2 -d 3 -p tcp -e 1040 -c 0 -i 6 -a 0 -x {0.0 3.0 -1 ------- null}
r -t 0.450333333333333 -s 0 -d 1 -p tcp -e 1040 -c 0 -i 8 -a 0 -x {0.0 3.0 5 ------- null}
+ -t 0.450333333333333 -s 1 -d 2 -p tcp -e 1040 -c 0 -i 8 -a 0 -x {0.0 3.0 5 ------- null}
- -t 0.450333333333333 -s 1 -d 2 -p tcp -e 1040 -c 0 -i 8 -a 0 -x {0.0 3.0 5 ------- null}
h -t 0.450333333333333 -s 1 -d 2 -p tcp -e 1040 -c 0 -i 8 -a 0 -x {0.0 3.0 -1 ------- null}
r -t 0.456466666666667 -s 3 -d 2 -p ack -e 40 -c 0 -i 10 -a 0 -x {3.0 0.0 3 ------- null}
+ -t 0.456466666666667 -s 2 -d 1 -p ack -e 40 -c 0 -i 10 -a 0 -x {3.0 0.0 3 ------- null}
- -t 0.456466666666667 -s 2 -d 1 -p ack -e 40 -c 0 -i 10 -a 0 -x {3.0 0.0 3 ------- null}
h -t 0.456466666666667 -s 2 -d 1 -p ack -e 40 -c 0 -i 10 -a 0 -x {3.0 0.0 -1 ------- null}
r -t 0.467533333333333 -s 2 -d 1 -p ack -e 40 -c 0 -i 10 -a 0 -x {3.0 0.0 3 ------- null}
+ -t 0.467533333333333 -s 1 -d 0 -p ack -e 40 -c 0 -i 10 -a 0 -x {3.0 0.0 3 ------- null}
- -t 0.467533333333333 -s 1 -d 0 -p ack -e 40 -c 0 -i 10 -a 0 -x {3.0 0.0 3 ------- null}
h -t 0.467533333333333 -s 1 -d 0 -p ack -e 40 -c 0 -i 10 -a 0 -x {3.0 0.0 -1 ------- null}
r -t 0.474133333333333 -s 1 -d 0 -p ack -e 40 -c 0 -i 10 -a 0 -x {3.0 0.0 3 ------- null}
+ -t 0.474133333333333 -s 0 -d 1 -p tcp -e 1040 -c 0 -i 11 -a 0 -x {0.0 3.0 7 ------- null}
+ -t 0.474133333333333 -s 0 -d 1 -p tcp -e 1040 -c 0 -i 12 -a 0 -x {0.0 3.0 8 ------- null}
r -t 0.482266666666667 -s 2 -d 3 -p tcp -e 1040 -c 0 -i 6 -a 0 -x {0.0 3.0 4 ------- null}
+ -t 0.482266666666667 -s 3 -d 2 -p ack -e 40 -c 0 -i 13 -a 0 -x {3.0 0.0 4 ------- null}
- -t 0.482266666666667 -s 3 -d 2 -p ack -e 40 -c 0 -i 13 -a 0 -x {3.0 0.0 4 ------- null}
h -t 0.482266666666667 -s 3 -d 2 -p ack -e 40 -c 0 -i 13 -a 0 -x {3.0 0.0 -1 ------- null}
- -t 0.486933333333333 -s 0 -d 1 -p tcp -e 1040 -c 0 -i 11 -a 0 -x {0.0 3.0 7 ------- null}
h -t 0.486933333333333 -s 0 -d 1 -p tcp -e 1040 -c 0 -i 11 -a 0 -x {0.0 3.0 -1 ------- null}
r -t 0.488066666666667 -s 1 -d 2 -p tcp -e 1040 -c 0 -i 8 -a 0 -x {0.0 3.0 5 ------- null}
+ -t 0.488066666666667 -s 2 -d 3 -p tcp -e 1040 -c 0 -i 8 -a 0 -x {0.0 3.0 5 ------- null}
- -t 0.488066666666667 -s 2 -d 3 -p tcp -e 1040 -c 0 -i 8 -a 0 -x {0.0 3.0 5 ------- null}
h -t 0.488066666666667 -s 2 -d 3 -p tcp -e 1040 -c 0 -i 8 -a 0 -x {0.0 3.0 -1 ------- null}
r -t 0.491933333333333 -s 0 -d 1 -p tcp -e 1040 -c 0 -i 9 -a 0 -x {0.0 3.0 6 ------- null}
+ -t 0.491933333333333 -s 1 -d 2 -p tcp -e 1040 -c 0 -i 9 -a 0 -x {0.0 3.0 6 ------- null}
- -t 0.491933333333333 -s 1 -d 2 -p tcp -e 1040 -c 0 -i 9 -a 0 -x {0.0 3.0 6 ------- null}
h -t 0.491933333333333 -s 1 -d 2 -p tcp -e 1040 -c 0 -i 9 -a 0 -x {0.0 3.0 -1 ------- null}
r -t 0.498066666666667 -s 3 -d 2 -p ack -e 40 -c 0 -i 13 -a 0 -x {3.0 0.0 4 ------- null}
+ -t 0.498066666666667 -s 2 -d 1 -p ack -e 40 -c 0 -i 13 -a 0 -x {3.0 0.0 4 ------- null}
- -t 0.498066666666667 -s 2 -d 1 -p ack -e 40 -c 0 -i 13 -a 0 -x {3.0 0.0 4 ------- null}
h -t 0.498066666666667 -s 2 -d 1 -p ack -e 40 -c 0 -i 13 -a 0 -x {3.0 0.0 -1 ------- null}
r -t 0.509133333333333 -s 2 -d 1 -p ack -e 40 -c 0 -i 13 -a 0 -x {3.0 0.0 4 ------- null}
+ -t 0.509133333333333 -s 1 -d 0 -p ack -e 40 -c 0 -i 13 -a 0 -x {3.0 0.0 4 ------- null}
- -t 0.509133333333333 -s 1 -d 0 -p ack -e 40 -c 0 -i 13 -a 0 -x {3.0 0.0 4 ------- null}
h -t 0.509133333333333 -s 1 -d 0 -p ack -e 40 -c 0 -i 13 -a 0 -x {3.0 0.0 -1 ------- null}
r -t 0.515733333333333 -s 1 -d 0 -p ack -e 40 -c 0 -i 13 -a 0 -x {3.0 0.0 4 ------- null}
+ -t 0.515733333333333 -s 0 -d 1 -p tcp -e 1040 -c 0 -i 14 -a 0 -x {0.0 3.0 9 ------- null}
+ -t 0.515733333333333 -s 0 -d 1 -p tcp -e 1040 -c 0 -i 15 -a 0 -x {0.0 3.0 10 ------- null}
d -t 0.515733333333333 -s 0 -d 1 -p tcp -e 1040 -c 0 -i 15 -a 0 -x {0.0 3.0 10 ------- null}
r -t 0.523866666666667 -s 2 -d 3 -p tcp -e 1040 -c 0 -i 8 -a 0 -x {0.0 3.0 5 ------- null}
+ -t 0.523866666666667 -s 3 -d 2 -p ack -e 40 -c 0 -i 16 -a 0 -x {3.0 0.0 5 ------- null}
- -t 0.523866666666667 -s 3 -d 2 -p ack -e 40 -c 0 -i 16 -a 0 -x {3.0 0.0 5 ------- null}
h -t 0.523866666666667 -s 3 -d 2 -p ack -e 40 -c 0 -i 16 -a 0 -x {3.0 0.0 -1 ------- null}
- -t 0.528533333333333 -s 0 -d 1 -p tcp -e 1040 -c 0 -i 12 -a 0 -x {0.0 3.0 8 ------- null}
h -t 0.528533333333333 -s 0 -d 1 -p tcp -e 1040 -c 0 -i 12 -a 0 -x {0.0 3.0 -1 ------- null}
r -t 0.529666666666667 -s 1 -d 2 -p tcp -e 1040 -c 0 -i 9 -a 0 -x {0.0 3.0 6 ------- null}
+ -t 0.529666666666667 -s 2 -d 3 -p tcp -e 1040 -c 0 -i 9 -a 0 -x {0.0 3.0 6 ------- null}
- -t 0.529666666666667 -s 2 -d 3 -p tcp -e 1040 -c 0 -i 9 -a 0 -x {0.0 3.0 6 ------- null}
h -t 0.529666666666667 -s 2 -d 3 -p tcp -e 1040 -c 0 -i 9 -a 0 -x {0.0 3.0 -1 ------- null}
r -t 0.533533333333333 -s 0 -d 1 -p tcp -e 1040 -c 0 -i 11 -a 0 -x {0.0 3.0 7 ------- null}
+ -t 0.533533333333333 -s 1 -d 2 -p tcp -e 1040 -c 0 -i 11 -a 0 -x {0.0 3.0 7 ------- null}
- -t 0.533533333333333 -s 1 -d 2 -p tcp -e 1040 -c 0 -i 11 -a 0 -x {0.0 3.0 7 ------- null}
h -t 0.533533333333333 -s 1 -d 2 -p tcp -e 1040 -c 0 -i 11 -a 0 -x {0.0 3.0 -1 ------- null}
r -t 0.539666666666667 -s 3 -d 2 -p ack -e 40 -c 0 -i 16 -a 0 -x {3.0 0.0 5 ------- null}
+ -t 0.539666666666667 -s 2 -d 1 -p ack -e 40 -c 0 -i 16 -a 0 -x {3.0 0.0 5 ------- null}
- -t 0.539666666666667 -s 2 -d 1 -p ack -e 40 -c 0 -i 16 -a 0 -x {3.0 0.0 5 ------- null}
h -t 0.539666666666667 -s 2 -d 1 -p ack -e 40 -c 0 -i 16 -a 0 -x {3.0 0.0 -1 ------- null}
r -t 0.550733333333333 -s 2 -d 1 -p ack -e 40 -c 0 -i 16 -a 0 -x {3.0 0.0 5 ------- null}
+ -t 0.550733333333333 -s 1 -d 0 -p ack -e 40 -c 0 -i 16 -a 0 -x {3.0 0.0 5 ------- null}
- -t 0.550733333333333 -s 1 -d 0 -p ack -e 40 -c 0 -i 16 -a 0 -x {3.0 0.0 5 ------- null}
h -t 0.550733333333333 -s 1 -d 0 -p ack -e 40 -c 0 -i 16 -a 0 -x {3.0 0.0 -1 ------- null}
r -t 0.557333333333333 -s 1 -d 0 -p ack -e 40 -c 0 -i 16 -a 0 -x {3.0 0.0 5 ------- null}
+ -t 0.557333333333333 -s 0 -d 1 -p tcp -e 1040 -c 0 -i 17 -a 0 -x {0.0 3.0 11 ------- null}
+ -t 0.557333333333333 -s 0 -d 1 -p tcp -e 1040 -c 0 -i 18 -a 0 -x {0.0 3.0 12 ------- null}
d -t 0.557333333333333 -s 0 -d 1 -p tcp -e 1040 -c 0 -i 18 -a 0 -x {0.0 3.0 12 ------- null}
r -t 0.565466666666667 -s 2 -d 3 -p tcp -e 1040 -c 0 -i 9 -a 0 -x {0.0 3.0 6 ------- null}
+ -t 0.565466666666667 -s 3 -d 2 -p ack -e 40 -c 0 -i 19 -a 0 -x {3.0 0.0 6 ------- null}
- -t 0.565466666666667 -s 3 -d 2 -p ack -e 40 -c 0 -i 19 -a 0 -x {3.0 0.0 6 ------- null}
h -t 0.565466666666667 -s 3 -d 2 -p ack -e 40 -c 0 -i 19 -a 0 -x {3.0 0.0 -1 ------- null}
- -t 0.570133333333333 -s 0 -d 1 -p tcp -e 1040 -c 0 -i 14 -a 0 -x {0.0 3.0 9 ------- null}
h -t 0.570133333333333 -s 0 -d 1 -p tcp -e 1040 -c 0 -i 14 -a 0 -x {0.0 3.0 -1 ------- null}
r -t 0.571266666666666 -s 1 -d 2 -p tcp -e 1040 -c 0 -i 11 -a 0 -x {0.0 3.0 7 ------- null}
+ -t 0.571266666666666 -s 2 -d 3 -p tcp -e 1040 -c 0 -i 11 -a 0 -x {0.0 3.0 7 ------- null}
- -t 0.571266666666666 -s 2 -d 3 -p tcp -e 1040 -c 0 -i 11 -a 0 -x {0.0 3.0 7 ------- null}
h -t 0.571266666666666 -s 2 -d 3 -p tcp -e 1040 -c 0 -i 11 -a 0 -x {0.0 3.0 -1 ------- null}
r -t 0.575133333333333 -s 0 -d 1 -p tcp -e 1040 -c 0 -i 12 -a 0 -x {0.0 3.0 8 ------- null}
+ -t 0.575133333333333 -s 1 -d 2 -p tcp -e 1040 -c 0 -i 12 -a 0 -x {0.0 3.0 8 ------- null}
- -t 0.575133333333333 -s 1 -d 2 -p tcp -e 1040 -c 0 -i 12 -a 0 -x {0.0 3.0 8 ------- null}
h -t 0.575133333333333 -s 1 -d 2 -p tcp -e 1040 -c 0 -i 12 -a 0 -x {0.0 3.0 -1 ------- null}
r -t 0.581266666666667 -s 3 -d 2 -p ack -e 40 -c 0 -i 19 -a 0 -x {3.0 0.0 6 ------- null}
+ -t 0.581266666666667 -s 2 -d 1 -p ack -e 40 -c 0 -i 19 -a 0 -x {3.0 0.0 6 ------- null}
- -t 0.581266666666667 -s 2 -d 1 -p ack -e 40 -c 0 -i 19 -a 0 -x {3.0 0.0 6 ------- null}
h -t 0.581266666666667 -s 2 -d 1 -p ack -e 40 -c 0 -i 19 -a 0 -x {3.0 0.0 -1 ------- null}
r -t 0.592333333333333 -s 2 -d 1 -p ack -e 40 -c 0 -i 19 -a 0 -x {3.0 0.0 6 ------- null}
+ -t 0.592333333333333 -s 1 -d 0 -p ack -e 40 -c 0 -i 19 -a 0 -x {3.0 0.0 6 ------- null}
- -t 0.592333333333333 -s 1 -d 0 -p ack -e 40 -c 0 -i 19 -a 0 -x {3.0 0.0 6 ------- null}
h -t 0.592333333333333 -s 1 -d 0 -p ack -e 40 -c 0 -i 19 -a 0 -x {3.0 0.0 -1 ------- null}
r -t 0.598933333333333 -s 1 -d 0 -p ack -e 40 -c 0 -i 19 -a 0 -x {3.0 0.0 6 ------- null}
+ -t 0.598933333333333 -s 0 -d 1 -p tcp -e 1040 -c 0 -i 20 -a 0 -x {0.0 3.0 13 ------- null}
+ -t 0.598933333333333 -s 0 -d 1 -p tcp -e 1040 -c 0 -i 21 -a 0 -x {0.0 3.0 14 ------- null}
d -t 0.598933333333333 -s 0 -d 1 -p tcp -e 1040 -c 0 -i 21 -a 0 -x {0.0 3.0 14 ------- null}
r -t 0.607066666666666 -s 2 -d 3 -p tcp -e 1040 -c 0 -i 11 -a 0 -x {0.0 3.0 7 ------- null}
+ -t 0.607066666666666 -s 3 -d 2 -p ack -e 40 -c 0 -i 22 -a 0 -x {3.0 0.0 7 ------- null}
- -t 0.607066666666666 -s 3 -d 2 -p ack -e 40 -c 0 -i 22 -a 0 -x {3.0 0.0 7 ------- null}
h -t 0.607066666666666 -s 3 -d 2 -p ack -e 40 -c 0 -i 22 -a 0 -x {3.0 0.0 -1 ------- null}
- -t 0.611733333333333 -s 0 -d 1 -p tcp -e 1040 -c 0 -i 17 -a 0 -x {0.0 3.0 11 ------- null}
h -t 0.611733333333333 -s 0 -d 1 -p tcp -e 1040 -c 0 -i 17 -a 0 -x {0.0 3.0 -1 ------- null}
r -t 0.612866666666666 -s 1 -d 2 -p tcp -e 1040 -c 0 -i 12 -a 0 -x {0.0 3.0 8 ------- null}
+ -t 0.612866666666666 -s 2 -d 3 -p tcp -e 1040 -c 0 -i 12 -a 0 -x {0.0 3.0 8 ------- null}
- -t 0.612866666666666 -s 2 -d 3 -p tcp -e 1040 -c 0 -i 12 -a 0 -x {0.0 3.0 8 ------- null}
h -t 0.612866666666666 -s 2 -d 3 -p tcp -e 1040 -c 0 -i 12 -a 0 -x {0.0 3.0 -1 ------- null}
r -t 0.616733333333333 -s 0 -d 1 -p tcp -e 1040 -c 0 -i 14 -a 0 -x {0.0 3.0 9 ------- null}
+ -t 0.616733333333333 -s 1 -d 2 -p tcp -e 1040 -c 0 -i 14 -a 0 -x {0.0 3.0 9 ------- null}
- -t 0.616733333333333 -s 1 -d 2 -p tcp -e 1040 -c 0 -i 14 -a 0 -x {0.0 3.0 9 ------- null}
h -t 0.616733333333333 -s 1 -d 2 -p tcp -e 1040 -c 0 -i 14 -a 0 -x {0.0 3.0 -1 ------- null}
r -t 0.622866666666666 -s 3 -d 2 -p ack -e 40 -c 0 -i 22 -a 0 -x {3.0 0.0 7 ------- null}
+ -t 0.622866666666666 -s 2 -d 1 -p ack -e 40 -c 0 -i 22 -a 0 -x {3.0 0.0 7 ------- null}
- -t 0.622866666666666 -s 2 -d 1 -p ack -e 40 -c 0 -i 22 -a 0 -x {3.0 0.0 7 ------- null}
h -t 0.622866666666666 -s 2 -d 1 -p ack -e 40 -c 0 -i 22 -a 0 -x {3.0 0.0 -1 ------- null}
r -t 0.633933333333333 -s 2 -d 1 -p ack -e 40 -c 0 -i 22 -a 0 -x {3.0 0.0 7 ------- null}
+ -t 0.633933333333333 -s 1 -d 0 -p ack -e 40 -c 0 -i 22 -a 0 -x {3.0 0.0 7 ------- null}
- -t 0.633933333333333 -s 1 -d 0 -p ack -e 40 -c 0 -i 22 -a 0 -x {3.0 0.0 7 ------- null}
h -t 0.633933333333333 -s 1 -d 0 -p ack -e 40 -c 0 -i 22 -a 0 -x {3.0 0.0 -1 ------- null}
r -t 0.640533333333333 -s 1 -d 0 -p ack -e 40 -c 0 -i 22 -a 0 -x {3.0 0.0 7 ------- null}
+ -t 0.640533333333333 -s 0 -d 1 -p tcp -e 1040 -c 0 -i 23 -a 0 -x {0.0 3.0 15 ------- null}
+ -t 0.640533333333333 -s 0 -d 1 -p tcp -e 1040 -c 0 -i 24 -a 0 -x {0.0 3.0 16 ------- null}
d -t 0.640533333333333 -s 0 -d 1 -p tcp -e 1040 -c 0 -i 24 -a 0 -x {0.0 3.0 16 ------- null}
r -t 0.648666666666667 -s 2 -d 3 -p tcp -e 1040 -c 0 -i 12 -a 0 -x {0.0 3.0 8 ------- null}
+ -t 0.648666666666667 -s 3 -d 2 -p ack -e 40 -c 0 -i 25 -a 0 -x {3.0 0.0 8 ------- null}
- -t 0.648666666666667 -s 3 -d 2 -p ack -e 40 -c 0 -i 25 -a 0 -x {3.0 0.0 8 ------- null}
h -t 0.648666666666667 -s 3 -d 2 -p ack -e 40 -c 0 -i 25 -a 0 -x {3.0 0.0 -1 ------- null}
- -t 0.653333333333333 -s 0 -d 1 -p tcp -e 1040 -c 0 -i 20 -a 0 -x {0.0 3.0 13 ------- null}
h -t 0.653333333333333 -s 0 -d 1 -p tcp -e 1040 -c 0 -i 20 -a 0 -x {0.0 3.0 -1 ------- null}
r -t 0.654466666666666 -s 1 -d 2 -p tcp -e 1040 -c 0 -i 14 -a 0 -x {0.0 3.0 9 ------- null}
+ -t 0.654466666666666 -s 2 -d 3 -p tcp -e 1040 -c 0 -i 14 -a 0 -x {0.0 3.0 9 ------- null}
- -t 0.654466666666666 -s 2 -d 3 -p tcp -e 1040 -c 0 -i 14 -a 0 -x {0.0 3.0 9 ------- null}
h -t 0.654466666666666 -s 2 -d 3 -p tcp -e 1040 -c 0 -i 14 -a 0 -x {0.0 3.0 -1 ------- null}
r -t 0.658333333333333 -s 0 -d 1 -p tcp -e 1040 -c 0 -i 17 -a 0 -x {0.0 3.0 11 ------- null}
+ -t 0.658333333333333 -s 1 -d 2 -p tcp -e 1040 -c 0 -i 17 -a 0 -x {0.0 3.0 11 ------- null}
- -t 0.658333333333333 -s 1 -d 2 -p tcp -e 1040 -c 0 -i 17 -a 0 -x {0.0 3.0 11 ------- null}
h -t 0.658333333333333 -s 1 -d 2 -p tcp -e 1040 -c 0 -i 17 -a 0 -x {0.0 3.0 -1 ------- null}
r -t 0.664466666666667 -s 3 -d 2 -p ack -e 40 -c 0 -i 25 -a 0 -x {3.0 0.0 8 ------- null}
+ -t 0.664466666666667 -s 2 -d 1 -p ack -e 40 -c 0 -i 25 -a 0 -x {3.0 0.0 8 ------- null}
- -t 0.664466666666667 -s 2 -d 1 -p ack -e 40 -c 0 -i 25 -a 0 -x {3.0 0.0 8 ------- null}
h -t 0.664466666666667 -s 2 -d 1 -p ack -e 40 -c 0 -i 25 -a 0 -x {3.0 0.0 -1 ------- null}
r -t 0.675533333333333 -s 2 -d 1 -p ack -e 40 -c 0 -i 25 -a 0 -x {3.0 0.0 8 ------- null}
+ -t 0.675533333333333 -s 1 -d 0 -p ack -e 40 -c 0 -i 25 -a 0 -x {3.0 0.0 8 ------- null}
- -t 0.675533333333333 -s 1 -d 0 -p ack -e 40 -c 0 -i 25 -a 0 -x {3.0 0.0 8 ------- null}
h -t 0.675533333333333 -s 1 -d 0 -p ack -e 40 -c 0 -i 25 -a 0 -x {3.0 0.0 -1 ------- null}
r -t 0.682133333333333 -s 1 -d 0 -p ack -e 40 -c 0 -i 25 -a 0 -x {3.0 0.0 8 ------- null}
+ -t 0.682133333333333 -s 0 -d 1 -p tcp -e 1040 -c 0 -i 26 -a 0 -x {0.0 3.0 17 ------- null}
+ -t 0.682133333333333 -s 0 -d 1 -p tcp -e 1040 -c 0 -i 27 -a 0 -x {0.0 3.0 18 ------- null}
d -t 0.682133333333333 -s 0 -d 1 -p tcp -e 1040 -c 0 -i 27 -a 0 -x {0.0 3.0 18 ------- null}
r -t 0.690266666666666 -s 2 -d 3 -p tcp -e 1040 -c 0 -i 14 -a 0 -x {0.0 3.0 9 ------- null}
+ -t 0.690266666666666 -s 3 -d 2 -p ack -e 40 -c 0 -i 28 -a 0 -x {3.0 0.0 9 ------- null}
- -t 0.690266666666666 -s 3 -d 2 -p ack -e 40 -c 0 -i 28 -a 0 -x {3.0 0.0 9 ------- null}
h -t 0.690266666666666 -s 3 -d 2 -p ack -e 40 -c 0 -i 28 -a 0 -x {3.0 0.0 -1 ------- null}
- -t 0.694933333333333 -s 0 -d 1 -p tcp -e 1040 -c 0 -i 23 -a 0 -x {0.0 3.0 15 ------- null}
h -t 0.694933333333333 -s 0 -d 1 -p tcp -e 1040 -c 0 -i 23 -a 0 -x {0.0 3.0 -1 ------- null}
r -t 0.696066666666666 -s 1 -d 2 -p tcp -e 1040 -c 0 -i 17 -a 0 -x {0.0 3.0 11 ------- null}
+ -t 0.696066666666666 -s 2 -d 3 -p tcp -e 1040 -c 0 -i 17 -a 0 -x {0.0 3.0 11 ------- null}
- -t 0.696066666666666 -s 2 -d 3 -p tcp -e 1040 -c 0 -i 17 -a 0 -x {0.0 3.0 11 ------- null}
h -t 0.696066666666666 -s 2 -d 3 -p tcp -e 1040 -c 0 -i 17 -a 0 -x {0.0 3.0 -1 ------- null}
r -t 0.699933333333333 -s 0 -d 1 -p tcp -e 1040 -c 0 -i 20 -a 0 -x {0.0 3.0 13 ------- null}
+ -t 0.699933333333333 -s 1 -d 2 -p tcp -e 1040 -c 0 -i 20 -a 0 -x {0.0 3.0 13 ------- null}
- -t 0.699933333333333 -s 1 -d 2 -p tcp -e 1040 -c 0 -i 20 -a 0 -x {0.0 3.0 13 ------- null}
h -t 0.699933333333333 -s 1 -d 2 -p tcp -e 1040 -c 0 -i 20 -a 0 -x {0.0 3.0 -1 ------- null}
r -t 0.706066666666666 -s 3 -d 2 -p ack -e 40 -c 0 -i 28 -a 0 -x {3.0 0.0 9 ------- null}
+ -t 0.706066666666666 -s 2 -d 1 -p ack -e 40 -c 0 -i 28 -a 0 -x {3.0 0.0 9 ------- null}
- -t 0.706066666666666 -s 2 -d 1 -p ack -e 40 -c 0 -i 28 -a 0 -x {3.0 0.0 9 ------- null}
h -t 0.706066666666666 -s 2 -d 1 -p ack -e 40 -c 0 -i 28 -a 0 -x {3.0 0.0 -1 ------- null}
r -t 0.717133333333333 -s 2 -d 1 -p ack -e 40 -c 0 -i 28 -a 0 -x {3.0 0.0 9 ------- null}
+ -t 0.717133333333333 -s 1 -d 0 -p ack -e 40 -c 0 -i 28 -a 0 -x {3.0 0.0 9 ------- null}
- -t 0.717133333333333 -s 1 -d 0 -p ack -e 40 -c 0 -i 28 -a 0 -x {3.0 0.0 9 ------- null}
h -t 0.717133333333333 -s 1 -d 0 -p ack -e 40 -c 0 -i 28 -a 0 -x {3.0 0.0 -1 ------- null}
r -t 0.723733333333333 -s 1 -d 0 -p ack -e 40 -c 0 -i 28 -a 0 -x {3.0 0.0 9 ------- null}
+ -t 0.723733333333333 -s 0 -d 1 -p tcp -e 1040 -c 0 -i 29 -a 0 -x {0.0 3.0 19 ------- null}
+ -t 0.723733333333333 -s 0 -d 1 -p tcp -e 1040 -c 0 -i 30 -a 0 -x {0.0 3.0 20 ------- null}
d -t 0.723733333333333 -s 0 -d 1 -p tcp -e 1040 -c 0 -i 30 -a 0 -x {0.0 3.0 20 ------- null}
r -t 0.731866666666666 -s 2 -d 3 -p tcp -e 1040 -c 0 -i 17 -a 0 -x {0.0 3.0 11 ------- null}
+ -t 0.731866666666666 -s 3 -d 2 -p ack -e 40 -c 0 -i 31 -a 0 -x {3.0 0.0 9 ------- null}
- -t 0.731866666666666 -s 3 -d 2 -p ack -e 40 -c 0 -i 31 -a 0 -x {3.0 0.0 9 ------- null}
h -t 0.731866666666666 -s 3 -d 2 -p ack -e 40 -c 0 -i 31 -a 0 -x {3.0 0.0 -1 ------- null}
- -t 0.736533333333333 -s 0 -d 1 -p tcp -e 1040 -c 0 -i 26 -a 0 -x {0.0 3.0 17 ------- null}
h -t 0.736533333333333 -s 0 -d 1 -p tcp -e 1040 -c 0 -i 26 -a 0 -x {0.0 3.0 -1 ------- null}
r -t 0.737666666666666 -s 1 -d 2 -p tcp -e 1040 -c 0 -i 20 -a 0 -x {0.0 3.0 13 ------- null}
+ -t 0.737666666666666 -s 2 -d 3 -p tcp -e 1040 -c 0 -i 20 -a 0 -x {0.0 3.0 13 ------- null}
- -t 0.737666666666666 -s 2 -d 3 -p tcp -e 1040 -c 0 -i 20 -a 0 -x {0.0 3.0 13 ------- null}
h -t 0.737666666666666 -s 2 -d 3 -p tcp -e 1040 -c 0 -i 20 -a 0 -x {0.0 3.0 -1 ------- null}
r -t 0.741533333333333 -s 0 -d 1 -p tcp -e 1040 -c 0 -i 23 -a 0 -x {0.0 3.0 15 ------- null}
+ -t 0.741533333333333 -s 1 -d 2 -p tcp -e 1040 -c 0 -i 23 -a 0 -x {0.0 3.0 15 ------- null}
- -t 0.741533333333333 -s 1 -d 2 -p tcp -e 1040 -c 0 -i 23 -a 0 -x {0.0 3.0 15 ------- null}
h -t 0.741533333333333 -s 1 -d 2 -p tcp -e 1040 -c 0 -i 23 -a 0 -x {0.0 3.0 -1 ------- null}
r -t 0.747666666666666 -s 3 -d 2 -p ack -e 40 -c 0 -i 31 -a 0 -x {3.0 0.0 9 ------- null}
+ -t 0.747666666666666 -s 2 -d 1 -p ack -e 40 -c 0 -i 31 -a 0 -x {3.0 0.0 9 ------- null}
- -t 0.747666666666666 -s 2 -d 1 -p ack -e 40 -c 0 -i 31 -a 0 -x {3.0 0.0 9 ------- null}
h -t 0.747666666666666 -s 2 -d 1 -p ack -e 40 -c 0 -i 31 -a 0 -x {3.0 0.0 -1 ------- null}
r -t 0.758733333333333 -s 2 -d 1 -p ack -e 40 -c 0 -i 31 -a 0 -x {3.0 0.0 9 ------- null}
+ -t 0.758733333333333 -s 1 -d 0 -p ack -e 40 -c 0 -i 31 -a 0 -x {3.0 0.0 9 ------- null}
- -t 0.758733333333333 -s 1 -d 0 -p ack -e 40 -c 0 -i 31 -a 0 -x {3.0 0.0 9 ------- null}
h -t 0.758733333333333 -s 1 -d 0 -p ack -e 40 -c 0 -i 31 -a 0 -x {3.0 0.0 -1 ------- null}
r -t 0.765333333333333 -s 1 -d 0 -p ack -e 40 -c 0 -i 31 -a 0 -x {3.0 0.0 9 ------- null}
+ -t 0.765333333333333 -s 0 -d 1 -p tcp -e 1040 -c 0 -i 32 -a 0 -x {0.0 3.0 21 ------- null}
r -t 0.773466666666666 -s 2 -d 3 -p tcp -e 1040 -c 0 -i 20 -a 0 -x {0.0 3.0 13 ------- null}
+ -t 0.773466666666666 -s 3 -d 2 -p ack -e 40 -c 0 -i 33 -a 0 -x {3.0 0.0 9 ------- null}
- -t 0.773466666666666 -s 3 -d 2 -p ack -e 40 -c 0 -i 33 -a 0 -x {3.0 0.0 9 ------- null}
h -t 0.773466666666666 -s 3 -d 2 -p ack -e 40 -c 0 -i 33 -a 0 -x {3.0 0.0 -1 ------- null}
- -t 0.778133333333333 -s 0 -d 1 -p tcp -e 1040 -c 0 -i 29 -a 0 -x {0.0 3.0 19 ------- null}
h -t 0.778133333333333 -s 0 -d 1 -p tcp -e 1040 -c 0 -i 29 -a 0 -x {0.0 3.0 -1 ------- null}
r -t 0.779266666666666 -s 1 -d 2 -p tcp -e 1040 -c 0 -i 23 -a 0 -x {0.0 3.0 15 ------- null}
+ -t 0.779266666666666 -s 2 -d 3 -p tcp -e 1040 -c 0 -i 23 -a 0 -x {0.0 3.0 15 ------- null}
- -t 0.779266666666666 -s 2 -d 3 -p tcp -e 1040 -c 0 -i 23 -a 0 -x {0.0 3.0 15 ------- null}
h -t 0.779266666666666 -s 2 -d 3 -p tcp -e 1040 -c 0 -i 23 -a 0 -x {0.0 3.0 -1 ------- null}
r -t 0.783133333333333 -s 0 -d 1 -p tcp -e 1040 -c 0 -i 26 -a 0 -x {0.0 3.0 17 ------- null}
+ -t 0.783133333333333 -s 1 -d 2 -p tcp -e 1040 -c 0 -i 26 -a 0 -x {0.0 3.0 17 ------- null}
- -t 0.783133333333333 -s 1 -d 2 -p tcp -e 1040 -c 0 -i 26 -a 0 -x {0.0 3.0 17 ------- null}
h -t 0.783133333333333 -s 1 -d 2 -p tcp -e 1040 -c 0 -i 26 -a 0 -x {0.0 3.0 -1 ------- null}
r -t 0.789266666666666 -s 3 -d 2 -p ack -e 40 -c 0 -i 33 -a 0 -x {3.0 0.0 9 ------- null}
+ -t 0.789266666666666 -s 2 -d 1 -p ack -e 40 -c 0 -i 33 -a 0 -x {3.0 0.0 9 ------- null}
- -t 0.789266666666666 -s 2 -d 1 -p ack -e 40 -c 0 -i 33 -a 0 -x {3.0 0.0 9 ------- null}
h -t 0.789266666666666 -s 2 -d 1 -p ack -e 40 -c 0 -i 33 -a 0 -x {3.0 0.0 -1 ------- null}
r -t 0.800333333333333 -s 2 -d 1 -p ack -e 40 -c 0 -i 33 -a 0 -x {3.0 0.0 9 ------- null}
+ -t 0.800333333333333 -s 1 -d 0 -p ack -e 40 -c 0 -i 33 -a 0 -x {3.0 0.0 9 ------- null}
- -t 0.800333333333333 -s 1 -d 0 -p ack -e 40 -c 0 -i 33 -a 0 -x {3.0 0.0 9 ------- null}
h -t 0.800333333333333 -s 1 -d 0 -p ack -e 40 -c 0 -i 33 -a 0 -x {3.0 0.0 -1 ------- null}
r -t 0.806933333333333 -s 1 -d 0 -p ack -e 40 -c 0 -i 33 -a 0 -x {3.0 0.0 9 ------- null}