+ 0.1 0 1 tcp 40 ------- 0 0.0 3.0 0 0
- 0.1 0 1 tcp 40 ------- 0 0.0 3.0 0 0
r 0.1066 0 1 tcp 40 ------- 0 0.0 3.0 0 0
+ 0.1066 1 2 tcp 40 ------- 0 0.0 3.0 0 0
- 0.1066 1 2 tcp 40 ------- 0 0.0 3.0 0 0
r 0.117667 1 2 tcp 40 ------- 0 0.0 3.0 0 0
+ 0.117667 2 3 tcp 40 ------- 0 0.0 3.0 0 0
- 0.117667 2 3 tcp 40 ------- 0 0.0 3.0 0 0
r 0.133467 2 3 tcp 40 ------- 0 0.0 3.0 0 0
+ 0.133467 3 2 ack 40 ------- 0 3.0 0.0 0 1
- 0.133467 3 2 ack 40 ------- 0 3.0 0.0 0 1
r 0.149267 3 2 ack 40 ------- 0 3.0 0.0 0 1
+ 0.149267 2 1 ack 40 ------- 0 3.0 0.0 0 1
- 0.149267 2 1 ack 40 ------- 0 3.0 0.0 0 1
r 0.160333 2 1 ack 40 ------- 0 3.0 0.0 0 1
+ 0.160333 1 0 ack 40 ------- 0 3.0 0.0 0 1
- 0.160333 1 0 ack 40 ------- 0 3.0 0.0 0 1
r 0.166933 1 0 ack 40 ------- 0 3.0 0.0 0 1
+ 0.166933 0 1 tcp 1040 ------- 0 0.0 3.0 1 2
- 0.166933 0 1 tcp 1040 ------- 0 0.0 3.0 1 2
+ 0.166933 0 1 tcp 1040 ------- 0 0.0 3.0 2 3
- 0.208533 0 1 tcp 1040 ------- 0 0.0 3.0 2 3
r 0.213533 0 1 tcp 1040 ------- 0 0.0 3.0 1 2
+ 0.213533 1 2 tcp 1040 ------- 0 0.0 3.0 1 2
- 0.213533 1 2 tcp 1040 ------- 0 0.0 3.0 1 2
r 0.251267 1 2 tcp 1040 ------- 0 0.0 3.0 1 2
+ 0.251267 2 3 tcp 1040 ------- 0 0.0 3.0 1 2
- 0.251267 2 3 tcp 1040 ------- 0 0.0 3.0 1 2
r 0.255133 0 1 tcp 1040 ------- 0 0.0 3.0 2 3
+ 0.255133 1 2 tcp 1040 ------- 0 0.0 3.0 2 3
- 0.255133 1 2 tcp 1040 ------- 0 0.0 3.0 2 3
r 0.287067 2 3 tcp 1040 ------- 0 0.0 3.0 1 2
+ 0.287067 3 2 ack 40 ------- 0 3.0 0.0 1 4
- 0.287067 3 2 ack 40 ------- 0 3.0 0.0 1 4
r 0.292867 1 2 tcp 1040 ------- 0 0.0 3.0 2 3
+ 0.292867 2 3 tcp 1040 ------- 0 0.0 3.0 2 3
- 0.292867 2 3 tcp 1040 ------- 0 0.0 3.0 2 3
r 0.302867 3 2 ack 40 ------- 0 3.0 0.0 1 4
+ 0.302867 2 1 ack 40 ------- 0 3.0 0.0 1 4
- 0.302867 2 1 ack 40 ------- 0 3.0 0.0 1 4
r 0.313933 2 1 ack 40 ------- 0 3.0 0.0 1 4
+ 0.313933 1 0 ack 40 ------- 0 3.0 0.0 1 4
- 0.313933 1 0 ack 40 ------- 0 3.0 0.0 1 4
r 0.320533 1 0 ack 40 ------- 0 3.0 0.0 1 4
+ 0.320533 0 1 tcp 1040 ------- 0 0.0 3.0 3 5
- 0.320533 0 1 tcp 1040 ------- 0 0.0 3.0 3 5
+ 0.320533 0 1 tcp 1040 ------- 0 0.0 3.0 4 6
r 0.328667 2 3 tcp 1040 ------- 0 0.0 3.0 2 3
+ 0.328667 3 2 ack 40 ------- 0 3.0 0.0 2 7
- 0.328667 3 2 ack 40 ------- 0 3.0 0.0 2 7
r 0.344467 3 2 ack 40 ------- 0 3.0 0.0 2 7
+ 0.344467 2 1 ack 40 ------- 0 3.0 0.0 2 7
- 0.344467 2 1 ack 40 ------- 0 3.0 0.0 2 7
r 0.355533 2 1 ack 40 ------- 0 3.0 0.0 2 7
+ 0.355533 1 0 ack 40 ------- 0 3.0 0.0 2 7
- 0.355533 1 0 ack 40 ------- 0 3.0 0.0 2 7
- 0.362133 0 1 tcp 1040 ------- 0 0.0 3.0 4 6
r 0.362133 1 0 ack 40 ------- 0 3.0 0.0 2 7
+ 0.362133 0 1 tcp 1040 ------- 0 0.0 3.0 5 8
+ 0.362133 0 1 tcp 1040 ------- 0 0.0 3.0 6 9
r 0.367133 0 1 tcp 1040 ------- 0 0.0 3.0 3 5
+ 0.367133 1 2 tcp 1040 ------- 0 0.0 3.0 3 5
- 0.367133 1 2 tcp 1040 ------- 0 0.0 3.0 3 5
- 0.403733 0 1 tcp 1040 ------- 0 0.0 3.0 5 8
r 0.404867 1 2 tcp 1040 ------- 0 0.0 3.0 3 5
+ 0.404867 2 3 tcp 1040 ------- 0 0.0 3.0 3 5
- 0.404867 2 3 tcp 1040 ------- 0 0.0 3.0 3 5
r 0.408733 0 1 tcp 1040 ------- 0 0.0 3.0 4 6
+ 0.408733 1 2 tcp 1040 ------- 0 0.0 3.0 4 6
- 0.408733 1 2 tcp 1040 ------- 0 0.0 3.0 4 6
r 0.440667 2 3 tcp 1040 ------- 0 0.0 3.0 3 5
+ 0.440667 3 2 ack 40 ------- 0 3.0 0.0 3 10
- 0.440667 3 2 ack 40 ------- 0 3.0 0.0 3 10
- 0.445333 0 1 tcp 1040 ------- 0 0.0 3.0 6 9
r 0.446467 1 2 tcp 1040 ------- 0 0.0 3.0 4 6
+ 0.446467 2 3 tcp 1040 ------- 0 0.0 3.0 4 6
- 0.446467 2 3 tcp 1040 ------- 0 0.0 3.0 4 6
r 0.450333 0 1 tcp 1040 ------- 0 0.0 3.0 5 8
+ 0.450333 1 2 tcp 1040 ------- 0 0.0 3.0 5 8
- 0.450333 1 2 tcp 1040 ------- 0 0.0 3.0 5 8
r 0.456467 3 2 ack 40 ------- 0 3.0 0.0 3 10
+ 0.456467 2 1 ack 40 ------- 0 3.0 0.0 3 10
- 0.456467 2 1 ack 40 ------- 0 3.0 0.0 3 10
r 0.467533 2 1 ack 40 ------- 0 3.0 0.0 3 10
+ 0.467533 1 0 ack 40 ------- 0 3.0 0.0 3 10
- 0.467533 1 0 ack 40 ------- 0 3.0 0.0 3 10
r 0.474133 1 0 ack 40 ------- 0 3.0 0.0 3 10
+ 0.474133 0 1 tcp 1040 ------- 0 0.0 3.0 7 11
+ 0.474133 0 1 tcp 1040 ------- 0 0.0 3.0 8 12
r 0.482267 2 3 tcp 1040 ------- 0 0.0 3.0 4 6
+ 0.482267 3 2 ack 40 ------- 0 3.0 0.0 4 13
- 0.482267 3 2 ack 40 ------- 0 3.0 0.0 4 13
- 0.486933 0 1 tcp 1040 ------- 0 0.0 3.0 7 11
r 0.488067 1 2 tcp 1040 ------- 0 0.0 3.0 5 8
+ 0.488067 2 3 tcp 1040 ------- 0 0.0 3.0 5 8
- 0.488067 2 3 tcp 1040 ------- 0 0.0 3.0 5 8
r 0.491933 0 1 tcp 1040 ------- 0 0.0 3.0 6 9
+ 0.491933 1 2 tcp 1040 ------- 0 0.0 3.0 6 9
- 0.491933 1 2 tcp 1040 ------- 0 0.0 3.0 6 9
r 0.498067 3 2 ack 40 ------- 0 3.0 0.0 4 13
+ 0.498067 2 1 ack 40 ------- 0 3.0 0.0 4 13
- 0.498067 2 1 ack 40 ------- 0 3.0 0.0 4 13
r 0.509133 2 1 ack 40 ------- 0 3.0 0.0 4 13
+ 0.509133 1 0 ack 40 ------- 0 3.0 0.0 4 13
- 0.509133 1 0 ack 40 ------- 0 3.0 0.0 4 13
r 0.515733 1 0 ack 40 ------- 0 3.0 0.0 4 13
+ 0.515733 0 1 tcp 1040 ------- 0 0.0 3.0 9 14
+ 0.515733 0 1 tcp 1040 ------- 0 0.0 3.0 10 15
d 0.515733 0 1 tcp 1040 ------- 0 0.0 3.0 10 15
r 0.523867 2 3 tcp 1040 ------- 0 0.0 3.0 5 8
+ 0.523867 3 2 ack 40 ------- 0 3.0 0.0 5 16
- 0.523867 3 2 ack 40 ------- 0 3.0 0.0 5 16
- 0.528533 0 1 tcp 1040 ------- 0 0.0 3.0 8 12
r 0.529667 1 2 tcp 1040 ------- 0 0.0 3.0 6 9
+ 0.529667 2 3 tcp 1040 ------- 0 0.0 3.0 6 9
- 0.529667 2 3 tcp 1040 ------- 0 0.0 3.0 6 9
r 0.533533 0 1 tcp 1040 ------- 0 0.0 3.0 7 11
+ 0.533533 1 2 tcp 1040 ------- 0 0.0 3.0 7 11
- 0.533533 1 2 tcp 1040 ------- 0 0.0 3.0 7 11
r 0.539667 3 2 ack 40 ------- 0 3.0 0.0 5 16
+ 0.539667 2 1 ack 40 ------- 0 3.0 0.0 5 16
- 0.539667 2 1 ack 40 ------- 0 3.0 0.0 5 16
r 0.550733 2 1 ack 40 ------- 0 3.0 0.0 5 16
+ 0.550733 1 0 ack 40 ------- 0 3.0 0.0 5 16
- 0.550733 1 0 ack 40 ------- 0 3.0 0.0 5 16
r 0.557333 1 0 ack 40 ------- 0 3.0 0.0 5 16
+ 0.557333 0 1 tcp 1040 ------- 0 0.0 3.0 11 17
+ 0.557333 0 1 tcp 1040 ------- 0 0.0 3.0 12 18
d 0.557333 0 1 tcp 1040 ------- 0 0.0 3.0 12 18
r 0.565467 2 3 tcp 1040 ------- 0 0.0 3.0 6 9
+ 0.565467 3 2 ack 40 ------- 0 3.0 0.0 6 19
- 0.565467 3 2 ack 40 ------- 0 3.0 0.0 6 19
- 0.570133 0 1 tcp 1040 ------- 0 0.0 3.0 9 14
r 0.571267 1 2 tcp 1040 ------- 0 0.0 3.0 7 11
+ 0.571267 2 3 tcp 1040 ------- 0 0.0 3.0 7 11
- 0.571267 2 3 tcp 1040 ------- 0 0.0 3.0 7 11
r 0.575133 0 1 tcp 1040 ------- 0 0.0 3.0 8 12
+ 0.575133 1 2 tcp 1040 ------- 0 0.0 3.0 8 12
- 0.575133 1 2 tcp 1040 ------- 0 0.0 3.0 8 12
r 0.581267 3 2 ack 40 ------- 0 3.0 0.0 6 19
+ 0.581267 2 1 ack 40 ------- 0 3.0 0.0 6 19
- 0.581267 2 1 ack 40 ------- 0 3.0 0.0 6 19
r 0.592333 2 1 ack 40 ------- 0 3.0 0.0 6 19
+ 0.592333 1 0 ack 40 ------- 0 3.0 0.0 6 19
- 0.592333 1 0 ack 40 ------- 0 3.0 0.0 6 19
r 0.598933 1 0 ack 40 ------- 0 3.0 0.0 6 19
+ 0.598933 0 1 tcp 1040 ------- 0 0.0 3.0 13 20
+ 0.598933 0 1 tcp 1040 ------- 0 0.0 3.0 14 21
d 0.598933 0 1 tcp 1040 ------- 0 0.0 3.0 14 21
r 0.607067 2 3 tcp 1040 ------- 0 0.0 3.0 7 11
+ 0.607067 3 2 ack 40 ------- 0 3.0 0.0 7 22
- 0.607067 3 2 ack 40 ------- 0 3.0 0.0 7 22
- 0.611733 0 1 tcp 1040 ------- 0 0.0 3.0 11 17
r 0.612867 1 2 tcp 1040 ------- 0 0.0 3.0 8 12
+ 0.612867 2 3 tcp 1040 ------- 0 0.0 3.0 8 12
- 0.612867 2 3 tcp 1040 ------- 0 0.0 3.0 8 12
r 0.616733 0 1 tcp 1040 ------- 0 0.0 3.0 9 14
+ 0.616733 1 2 tcp 1040 ------- 0 0.0 3.0 9 14
- 0.616733 1 2 tcp 1040 ------- 0 0.0 3.0 9 14
r 0.622867 3 2 ack 40 ------- 0 3.0 0.0 7 22
+ 0.622867 2 1 ack 40 ------- 0 3.0 0.0 7 22
- 0.622867 2 1 ack 40 ------- 0 3.0 0.0 7 22
r 0.633933 2 1 ack 40 ------- 0 3.0 0.0 7 22
+ 0.633933 1 0 ack 40 ------- 0 3.0 0.0 7 22
- 0.633933 1 0 ack 40 ------- 0 3.0 0.0 7 22
r 0.640533 1 0 ack 40 ------- 0 3.0 0.0 7 22
+ 0.640533 0 1 tcp 1040 ------- 0 0.0 3.0 15 23
+ 0.640533 0 1 tcp 1040 ------- 0 0.0 3.0 16 24
d 0.640533 0 1 tcp 1040 ------- 0 0.0 3.0 16 24
r 0.648667 2 3 tcp 1040 ------- 0 0.0 3.0 8 12
+ 0.648667 3 2 ack 40 ------- 0 3.0 0.0 8 25
- 0.648667 3 2 ack 40 ------- 0 3.0 0.0 8 25
- 0.653333 0 1 tcp 1040 ------- 0 0.0 3.0 13 20
r 0.654467 1 2 tcp 1040 ------- 0 0.0 3.0 9 14
+ 0.654467 2 3 tcp 1040 ------- 0 0.0 3.0 9 14
- 0.654467 2 3 tcp 1040 ------- 0 0.0 3.0 9 14
r 0.658333 0 1 tcp 1040 ------- 0 0.0 3.0 11 17
+ 0.658333 1 2 tcp 1040 ------- 0 0.0 3.0 11 17
- 0.658333 1 2 tcp 1040 ------- 0 0.0 3.0 11 17
r 0.664467 3 2 ack 40 ------- 0 3.0 0.0 8 25
+ 0.664467 2 1 ack 40 ------- 0 3.0 0.0 8 25
- 0.664467 2 1 ack 40 ------- 0 3.0 0.0 8 25
r 0.675533 2 1 ack 40 ------- 0 3.0 0.0 8 25
+ 0.675533 1 0 ack 40 ------- 0 3.0 0.0 8 25
- 0.675533 1 0 ack 40 ------- 0 3.0 0.0 8 25
r 0.682133 1 0 ack 40 ------- 0 3.0 0.0 8 25
+ 0.682133 0 1 tcp 1040 ------- 0 0.0 3.0 17 26
+ 0.682133 0 1 tcp 1040 ------- 0 0.0 3.0 18 27
d 0.682133 0 1 tcp 1040 ------- 0 0.0 3.0 18 27
r 0.690267 2 3 tcp 1040 ------- 0 0.0 3.0 9 14
+ 0.690267 3 2 ack 40 ------- 0 3.0 0.0 9 28
- 0.690267 3 2 ack 40 ------- 0 3.0 0.0 9 28
- 0.694933 0 1 tcp 1040 ------- 0 0.0 3.0 15 23
r 0.696067 1 2 tcp 1040 ------- 0 0.0 3.0 11 17
+ 0.696067 2 3 tcp 1040 ------- 0 0.0 3.0 11 17
- 0.696067 2 3 tcp 1040 ------- 0 0.0 3.0 11 17
r 0.699933 0 1 tcp 1040 ------- 0 0.0 3.0 13 20
+ 0.699933 1 2 tcp 1040 ------- 0 0.0 3.0 13 20
- 0.699933 1 2 tcp 1040 ------- 0 0.0 3.0 13 20
r 0.706067 3 2 ack 40 ------- 0 3.0 0.0 9 28
+ 0.706067 2 1 ack 40 ------- 0 3.0 0.0 9 28
- 0.706067 2 1 ack 40 ------- 0 3.0 0.0 9 28
r 0.717133 2 1 ack 40 ------- 0 3.0 0.0 9 28
+ 0.717133 1 0 ack 40 ------- 0 3.0 0.0 9 28
- 0.717133 1 0 ack 40 ------- 0 3.0 0.0 9 28
r 0.723733 1 0 ack 40 ------- 0 3.0 0.0 9 28
+ 0.723733 0 1 tcp 1040 ------- 0 0.0 3.0 19 29
+ 0.723733 0 1 tcp 1040 ------- 0 0.0 3.0 20 30
d 0.723733 0 1 tcp 1040 ------- 0 0.0 3.0 20 30
r 0.731867 2 3 tcp 1040 ------- 0 0.0 3.0 11 17
+ 0.731867 3 2 ack 40 ------- 0 3.0 0.0 9 31
- 0.731867 3 2 ack 40 ------- 0 3.0 0.0 9 31
- 0.736533 0 1 tcp 1040 ------- 0 0.0 3.0 17 26
r 0.737667 1 2 tcp 1040 ------- 0 0.0 3.0 13 20
+ 0.737667 2 3 tcp 1040 ------- 0 0.0 3.0 13 20
- 0.737667 2 3 tcp 1040 ------- 0 0.0 3.0 13 20
r 0.741533 0 1 tcp 1040 ------- 0 0.0 3.0 15 23
+ 0.741533 1 2 tcp 1040 ------- 0 0.0 3.0 15 23
- 0.741533 1 2 tcp 1040 ------- 0 0.0 3.0 15 23
r 0.747667 3 2 ack 40 ------- 0 3.0 0.0 9 31
+ 0.747667 2 1 ack 40 ------- 0 3.0 0.0 9 31
- 0.747667 2 1 ack 40 ------- 0 3.0 0.0 9 31
r 0.758733 2 1 ack 40 ------- 0 3.0 0.0 9 31
+ 0.758733 1 0 ack 40 ------- 0 3.0 0.0 9 31
- 0.758733 1 0 ack 40 ------- 0 3.0 0.0 9 31
r 0.765333 1 0 ack 40 ------- 0 3.0 0.0 9 31
+ 0.765333 0 1 tcp 1040 ------- 0 0.0 3.0 21 32
r 0.773467 2 3 tcp 1040 ------- 0 0.0 3.0 13 20
+ 0.773467 3 2 ack 40 ------- 0 3.0 0.0 9 33
- 0.773467 3 2 ack 40 ------- 0 3.0 0.0 9 33
- 0.778133 0 1 tcp 1040 ------- 0 0.0 3.0 19 29
r 0.779267 1 2 tcp 1040 ------- 0 0.0 3.0 15 23
+ 0.779267 2 3 tcp 1040 ------- 0 0.0 3.0 15 23
- 0.779267 2 3 tcp 1040 ------- 0 0.0 3.0 15 23
r 0.783133 0 1 tcp 1040 ------- 0 0.0 3.0 17 26
+ 0.783133 1 2 tcp 1040 ------- 0 0.0 3.0 17 26
- 0.783133 1 2 tcp 1040 ------- 0 0.0 3.0 17 26
r 0.789267 3 2 ack 40 ------- 0 3.0 0.0 9 33
+ 0.789267 2 1 ack 40 ------- 0 3.0 0.0 9 33
- 0.789267 2 1 ack 40 ------- 0 3.0 0.0 9 33
r 0.800333 2 1 ack 40 ------- 0 3.0 0.0 9 33
+ 0.800333 1 0 ack 40 ------- 0 3.0 0.0 9 33
- 0.800333 1 0 ack 40 ------- 0 3.0 0.0 9 33
r 0.806933 1 0 ack 40 ------- 0 3.0 0.0 9 33
+ 0.806933 0 1 tcp 1040 ------- 0 0.0 3.0 22 34
r 0.815067 2 3 tcp 1040 ------- 0 0.0 3.0 15 23
+ 0.815067 3 2 ack 40 ------- 0 3.0 0.0 9 35
- 0.815067 3 2 ack 40 ------- 0 3.0 0.0 9 35
- 0.819733 0 1 tcp 1040 ------- 0 0.0 3.0 21 32
r 0.820867 1 2 tcp 1040 ------- 0 0.0 3.0 17 26
+ 0.820867 2 3 tcp 1040 ------- 0 0.0 3.0 17 26
- 0.820867 2 3 tcp 1040 ------- 0 0.0 3.0 17 26
r 0.824733 0 1 tcp 1040 ------- 0 0.0 3.0 19 29
+ 0.824733 1 2 tcp 1040 ------- 0 0.0 3.0 19 29
- 0.824733 1 2 tcp 1040 ------- 0 0.0 3.0 19 29
r 0.830867 3 2 ack 40 ------- 0 3.0 0.0 9 35
+ 0.830867 2 1 ack 40 ------- 0 3.0 0.0 9 35
- 0.830867 2 1 ack 40 ------- 0 3.0 0.0 9 35
r 0.841933 2 1 ack 40 ------- 0 3.0 0.0 9 35
+ 0.841933 1 0 ack 40 ------- 0 3.0 0.0 9 35
- 0.841933 1 0 ack 40 ------- 0 3.0 0.0 9 35
r 0.848533 1 0 ack 40 ------- 0 3.0 0.0 9 35
+ 0.848533 0 1 tcp 1040 ---A--- 0 0.0 3.0 10 36
r 0.856667 2 3 tcp 1040 ------- 0 0.0 3.0 17 26
+ 0.856667 3 2 ack 40 ------- 0 3.0 0.0 9 37
- 0.856667 3 2 ack 40 ------- 0 3.0 0.0 9 37
- 0.861333 0 1 tcp 1040 ------- 0 0.0 3.0 22 34
r 0.862467 1 2 tcp 1040 ------- 0 0.0 3.0 19 29
+ 0.862467 2 3 tcp 1040 ------- 0 0.0 3.0 19 29
- 0.862467 2 3 tcp 1040 ------- 0 0.0 3.0 19 29
r 0.866333 0 1 tcp 1040 ------- 0 0.0 3.0 21 32
+ 0.866333 1 2 tcp 1040 ------- 0 0.0 3.0 21 32
- 0.866333 1 2 tcp 1040 ------- 0 0.0 3.0 21 32
r 0.872467 3 2 ack 40 ------- 0 3.0 0.0 9 37
+ 0.872467 2 1 ack 40 ------- 0 3.0 0.0 9 37
- 0.872467 2 1 ack 40 ------- 0 3.0 0.0 9 37
r 0.883533 2 1 ack 40 ------- 0 3.0 0.0 9 37
+ 0.883533 1 0 ack 40 ------- 0 3.0 0.0 9 37
- 0.883533 1 0 ack 40 ------- 0 3.0 0.0 9 37
r 0.890133 1 0 ack 40 ------- 0 3.0 0.0 9 37
r 0.898267 2 3 tcp 1040 ------- 0 0.0 3.0 19 29
+ 0.898267 3 2 ack 40 ------- 0 3.0 0.0 9 38
- 0.898267 3 2 ack 40 ------- 0 3.0 0.0 9 38
- 0.902933 0 1 tcp 1040 ---A--- 0 0.0 3.0 10 36
r 0.904067 1 2 tcp 1040 ------- 0 0.0 3.0 21 32
+ 0.904067 2 3 tcp 1040 ------- 0 0.0 3.0 21 32
- 0.904067 2 3 tcp 1040 ------- 0 0.0 3.0 21 32
r 0.907933 0 1 tcp 1040 ------- 0 0.0 3.0 22 34
+ 0.907933 1 2 tcp 1040 ------- 0 0.0 3.0 22 34
- 0.907933 1 2 tcp 1040 ------- 0 0.0 3.0 22 34
r 0.914067 3 2 ack 40 ------- 0 3.0 0.0 9 38
+ 0.914067 2 1 ack 40 ------- 0 3.0 0.0 9 38
- 0.914067 2 1 ack 40 ------- 0 3.0 0.0 9 38
r 0.925133 2 1 ack 40 ------- 0 3.0 0.0 9 38
+ 0.925133 1 0 ack 40 ------- 0 3.0 0.0 9 38
- 0.925133 1 0 ack 40 ------- 0 3.0 0.0 9 38
r 0.931733 1 0 ack 40 ------- 0 3.0 0.0 9 38
r 0.939867 2 3 tcp 1040 ------- 0 0.0 3.0 21 32
+ 0.939867 3 2 ack 40 ------- 0 3.0 0.0 9 39
- 0.939867 3 2 ack 40 ------- 0 3.0 0.0 9 39
r 0.945667 1 2 tcp 1040 ------- 0 0.0 3.0 22 34
+ 0.945667 2 3 tcp 1040 ------- 0 0.0 3.0 22 34
- 0.945667 2 3 tcp 1040 ------- 0 0.0 3.0 22 34
r 0.949533 0 1 tcp 1040 ---A--- 0 0.0 3.0 10 36
+ 0.949533 1 2 tcp 1040 ---A--- 0 0.0 3.0 10 36
- 0.949533 1 2 tcp 1040 ---A--- 0 0.0 3.0 10 36
r 0.955667 3 2 ack 40 ------- 0 3.0 0.0 9 39
+ 0.955667 2 1 ack 40 ------- 0 3.0 0.0 9 39
- 0.955667 2 1 ack 40 ------- 0 3.0 0.0 9 39
r 0.966733 2 1 ack 40 ------- 0 3.0 0.0 9 39
+ 0.966733 1 0 ack 40 ------- 0 3.0 0.0 9 39
- 0.966733 1 0 ack 40 ------- 0 3.0 0.0 9 39
r 0.973333 1 0 ack 40 ------- 0 3.0 0.0 9 39
r 0.981467 2 3 tcp 1040 ------- 0 0.0 3.0 22 34
+ 0.981467 3 2 ack 40 ------- 0 3.0 0.0 9 40
- 0.981467 3 2 ack 40 ------- 0 3.0 0.0 9 40
r 0.987267 1 2 tcp 1040 ---A--- 0 0.0 3.0 10 36
+ 0.987267 2 3 tcp 1040 ---A--- 0 0.0 3.0 10 36
- 0.987267 2 3 tcp 1040 ---A--- 0 0.0 3.0 10 36
r 0.997267 3 2 ack 40 ------- 0 3.0 0.0 9 40
+ 0.997267 2 1 ack 40 ------- 0 3.0 0.0 9 40
- 0.997267 2 1 ack 40 ------- 0 3.0 0.0 9 40
r 1.008333 2 1 ack 40 ------- 0 3.0 0.0 9 40
+ 1.008333 1 0 ack 40 ------- 0 3.0 0.0 9 40
- 1.008333 1 0 ack 40 ------- 0 3.0 0.0 9 40
r 1.014933 1 0 ack 40 ------- 0 3.0 0.0 9 40
r 1.023067 2 3 tcp 1040 ---A--- 0 0.0 3.0 10 36
+ 1.023067 3 2 ack 40 ------- 0 3.0 0.0 11 41
- 1.023067 3 2 ack 40 ------- 0 3.0 0.0 11 41
r 1.038867 3 2 ack 40 ------- 0 3.0 0.0 11 41
+ 1.038867 2 1 ack 40 ------- 0 3.0 0.0 11 41
- 1.038867 2 1 ack 40 ------- 0 3.0 0.0 11 41
r 1.049933 2 1 ack 40 ------- 0 3.0 0.0 11 41
+ 1.049933 1 0 ack 40 ------- 0 3.0 0.0 11 41
- 1.049933 1 0 ack 40 ------- 0 3.0 0.0 11 41
r 1.056533 1 0 ack 40 ------- 0 3.0 0.0 11 41
+ 1.056533 0 1 tcp 1040 ------- 0 0.0 3.0 12 42
- 1.056533 0 1 tcp 1040 ------- 0 0.0 3.0 12 42
+ 1.056533 0 1 tcp 1040 ------- 0 0.0 3.0 13 43
- 1.098133 0 1 tcp 1040 ------- 0 0.0 3.0 13 43
r 1.103133 0 1 tcp 1040 ------- 0 0.0 3.0 12 42
+ 1.103133 1 2 tcp 1040 ------- 0 0.0 3.0 12 42
- 1.103133 1 2 tcp 1040 ------- 0 0.0 3.0 12 42
r 1.140867 1 2 tcp 1040 ------- 0 0.0 3.0 12 42
+ 1.140867 2 3 tcp 1040 ------- 0 0.0 3.0 12 42
- 1.140867 2 3 tcp 1040 ------- 0 0.0 3.0 12 42
r 1.144733 0 1 tcp 1040 ------- 0 0.0 3.0 13 43
+ 1.144733 1 2 tcp 1040 ------- 0 0.0 3.0 13 43
- 1.144733 1 2 tcp 1040 ------- 0 0.0 3.0 13 43
r 1.176667 2 3 tcp 1040 ------- 0 0.0 3.0 12 42
+ 1.176667 3 2 ack 40 ------- 0 3.0 0.0 13 44
- 1.176667 3 2 ack 40 ------- 0 3.0 0.0 13 44
r 1.182467 1 2 tcp 1040 ------- 0 0.0 3.0 13 43
+ 1.182467 2 3 tcp 1040 ------- 0 0.0 3.0 13 43
- 1.182467 2 3 tcp 1040 ------- 0 0.0 3.0 13 43
r 1.192467 3 2 ack 40 ------- 0 3.0 0.0 13 44
+ 1.192467 2 1 ack 40 ------- 0 3.0 0.0 13 44
- 1.192467 2 1 ack 40 ------- 0 3.0 0.0 13 44
r 1.203533 2 1 ack 40 ------- 0 3.0 0.0 13 44
+ 1.203533 1 0 ack 40 ------- 0 3.0 0.0 13 44
- 1.203533 1 0 ack 40 ------- 0 3.0 0.0 13 44
r 1.210133 1 0 ack 40 ------- 0 3.0 0.0 13 44
+ 1.210133 0 1 tcp 1040 ------- 0 0.0 3.0 14 45
- 1.210133 0 1 tcp 1040 ------- 0 0.0 3.0 14 45
+ 1.210133 0 1 tcp 1040 ------- 0 0.0 3.0 15 46
+ 1.210133 0 1 tcp 1040 ------- 0 0.0 3.0 16 47
r 1.218267 2 3 tcp 1040 ------- 0 0.0 3.0 13 43
+ 1.218267 3 2 ack 40 ------- 0 3.0 0.0 13 48
- 1.218267 3 2 ack 40 ------- 0 3.0 0.0 13 48
r 1.234067 3 2 ack 40 ------- 0 3.0 0.0 13 48
+ 1.234067 2 1 ack 40 ------- 0 3.0 0.0 13 48
- 1.234067 2 1 ack 40 ------- 0 3.0 0.0 13 48
r 1.245133 2 1 ack 40 ------- 0 3.0 0.0 13 48
+ 1.245133 1 0 ack 40 ------- 0 3.0 0.0 13 48
- 1.245133 1 0 ack 40 ------- 0 3.0 0.0 13 48
- 1.251733 0 1 tcp 1040 ------- 0 0.0 3.0 15 46
r 1.251733 1 0 ack 40 ------- 0 3.0 0.0 13 48
+ 1.251733 0 1 tcp 1040 ------- 0 0.0 3.0 17 49
r 1.256733 0 1 tcp 1040 ------- 0 0.0 3.0 14 45
+ 1.256733 1 2 tcp 1040 ------- 0 0.0 3.0 14 45
- 1.256733 1 2 tcp 1040 ------- 0 0.0 3.0 14 45
- 1.293333 0 1 tcp 1040 ------- 0 0.0 3.0 16 47
r 1.294467 1 2 tcp 1040 ------- 0 0.0 3.0 14 45
+ 1.294467 2 3 tcp 1040 ------- 0 0.0 3.0 14 45
- 1.294467 2 3 tcp 1040 ------- 0 0.0 3.0 14 45
r 1.298333 0 1 tcp 1040 ------- 0 0.0 3.0 15 46
+ 1.298333 1 2 tcp 1040 ------- 0 0.0 3.0 15 46
- 1.298333 1 2 tcp 1040 ------- 0 0.0 3.0 15 46
r 1.330267 2 3 tcp 1040 ------- 0 0.0 3.0 14 45
+ 1.330267 3 2 ack 40 ------- 0 3.0 0.0 15 50
- 1.330267 3 2 ack 40 ------- 0 3.0 0.0 15 50
- 1.334933 0 1 tcp 1040 ------- 0 0.0 3.0 17 49
r 1.336067 1 2 tcp 1040 ------- 0 0.0 3.0 15 46
+ 1.336067 2 3 tcp 1040 ------- 0 0.0 3.0 15 46
- 1.336067 2 3 tcp 1040 ------- 0 0.0 3.0 15 46
r 1.339933 0 1 tcp 1040 ------- 0 0.0 3.0 16 47
+ 1.339933 1 2 tcp 1040 ------- 0 0.0 3.0 16 47
- 1.339933 1 2 tcp 1040 ------- 0 0.0 3.0 16 47
r 1.346067 3 2 ack 40 ------- 0 3.0 0.0 15 50
+ 1.346067 2 1 ack 40 ------- 0 3.0 0.0 15 50
- 1.346067 2 1 ack 40 ------- 0 3.0 0.0 15 50
r 1.357133 2 1 ack 40 ------- 0 3.0 0.0 15 50
+ 1.357133 1 0 ack 40 ------- 0 3.0 0.0 15 50
- 1.357133 1 0 ack 40 ------- 0 3.0 0.0 15 50
r 1.363733 1 0 ack 40 ------- 0 3.0 0.0 15 50
+ 1.363733 0 1 tcp 1040 ------- 0 0.0 3.0 18 51
+ 1.363733 0 1 tcp 1040 ------- 0 0.0 3.0 19 52
r 1.371867 2 3 tcp 1040 ------- 0 0.0 3.0 15 46
+ 1.371867 3 2 ack 40 ------- 0 3.0 0.0 15 53
- 1.371867 3 2 ack 40 ------- 0 3.0 0.0 15 53
- 1.376533 0 1 tcp 1040 ------- 0 0.0 3.0 18 51
r 1.377667 1 2 tcp 1040 ------- 0 0.0 3.0 16 47
+ 1.377667 2 3 tcp 1040 ------- 0 0.0 3.0 16 47
- 1.377667 2 3 tcp 1040 ------- 0 0.0 3.0 16 47
r 1.381533 0 1 tcp 1040 ------- 0 0.0 3.0 17 49
+ 1.381533 1 2 tcp 1040 ------- 0 0.0 3.0 17 49
- 1.381533 1 2 tcp 1040 ------- 0 0.0 3.0 17 49
r 1.387667 3 2 ack 40 ------- 0 3.0 0.0 15 53
+ 1.387667 2 1 ack 40 ------- 0 3.0 0.0 15 53
- 1.387667 2 1 ack 40 ------- 0 3.0 0.0 15 53
r 1.398733 2 1 ack 40 ------- 0 3.0 0.0 15 53
+ 1.398733 1 0 ack 40 ------- 0 3.0 0.0 15 53
- 1.398733 1 0 ack 40 ------- 0 3.0 0.0 15 53
r 1.405333 1 0 ack 40 ------- 0 3.0 0.0 15 53
+ 1.405333 0 1 tcp 1040 ------- 0 0.0 3.0 20 54
r 1.413467 2 3 tcp 1040 ------- 0 0.0 3.0 16 47
+ 1.413467 3 2 ack 40 ------- 0 3.0 0.0 17 55
- 1.413467 3 2 ack 40 ------- 0 3.0 0.0 17 55
- 1.418133 0 1 tcp 1040 ------- 0 0.0 3.0 19 52
r 1.419267 1 2 tcp 1040 ------- 0 0.0 3.0 17 49
+ 1.419267 2 3 tcp 1040 ------- 0 0.0 3.0 17 49
- 1.419267 2 3 tcp 1040 ------- 0 0.0 3.0 17 49
r 1.423133 0 1 tcp 1040 ------- 0 0.0 3.0 18 51
+ 1.423133 1 2 tcp 1040 ------- 0 0.0 3.0 18 51
- 1.423133 1 2 tcp 1040 ------- 0 0.0 3.0 18 51
r 1.429267 3 2 ack 40 ------- 0 3.0 0.0 17 55
+ 1.429267 2 1 ack 40 ------- 0 3.0 0.0 17 55
- 1.429267 2 1 ack 40 ------- 0 3.0 0.0 17 55
r 1.440333 2 1 ack 40 ------- 0 3.0 0.0 17 55
+ 1.440333 1 0 ack 40 ------- 0 3.0 0.0 17 55
- 1.440333 1 0 ack 40 ------- 0 3.0 0.0 17 55
r 1.446933 1 0 ack 40 ------- 0 3.0 0.0 17 55
+ 1.446933 0 1 tcp 1040 ------- 0 0.0 3.0 21 56
+ 1.446933 0 1 tcp 1040 ------- 0 0.0 3.0 22 57
d 1.446933 0 1 tcp 1040 ------- 0 0.0 3.0 22 57
r 1.455067 2 3 tcp 1040 ------- 0 0.0 3.0 17 49
+ 1.455067 3 2 ack 40 ------- 0 3.0 0.0 17 58
- 1.455067 3 2 ack 40 ------- 0 3.0 0.0 17 58
- 1.459733 0 1 tcp 1040 ------- 0 0.0 3.0 20 54
r 1.460867 1 2 tcp 1040 ------- 0 0.0 3.0 18 51
+ 1.460867 2 3 tcp 1040 ------- 0 0.0 3.0 18 51
- 1.460867 2 3 tcp 1040 ------- 0 0.0 3.0 18 51
r 1.464733 0 1 tcp 1040 ------- 0 0.0 3.0 19 52
+ 1.464733 1 2 tcp 1040 ------- 0 0.0 3.0 19 52
- 1.464733 1 2 tcp 1040 ------- 0 0.0 3.0 19 52
r 1.470867 3 2 ack 40 ------- 0 3.0 0.0 17 58
+ 1.470867 2 1 ack 40 ------- 0 3.0 0.0 17 58
- 1.470867 2 1 ack 40 ------- 0 3.0 0.0 17 58
r 1.481933 2 1 ack 40 ------- 0 3.0 0.0 17 58
+ 1.481933 1 0 ack 40 ------- 0 3.0 0.0 17 58
- 1.481933 1 0 ack 40 ------- 0 3.0 0.0 17 58
r 1.488533 1 0 ack 40 ------- 0 3.0 0.0 17 58
+ 1.488533 0 1 tcp 1040 ------- 0 0.0 3.0 23 59
r 1.496667 2 3 tcp 1040 ------- 0 0.0 3.0 18 51
+ 1.496667 3 2 ack 40 ------- 0 3.0 0.0 19 60
- 1.496667 3 2 ack 40 ------- 0 3.0 0.0 19 60
- 1.501333 0 1 tcp 1040 ------- 0 0.0 3.0 21 56
r 1.502467 1 2 tcp 1040 ------- 0 0.0 3.0 19 52
+ 1.502467 2 3 tcp 1040 ------- 0 0.0 3.0 19 52
- 1.502467 2 3 tcp 1040 ------- 0 0.0 3.0 19 52
r 1.506333 0 1 tcp 1040 ------- 0 0.0 3.0 20 54
+ 1.506333 1 2 tcp 1040 ------- 0 0.0 3.0 20 54
- 1.506333 1 2 tcp 1040 ------- 0 0.0 3.0 20 54
r 1.512467 3 2 ack 40 ------- 0 3.0 0.0 19 60
+ 1.512467 2 1 ack 40 ------- 0 3.0 0.0 19 60
- 1.512467 2 1 ack 40 ------- 0 3.0 0.0 19 60
r 1.523533 2 1 ack 40 ------- 0 3.0 0.0 19 60
+ 1.523533 1 0 ack 40 ------- 0 3.0 0.0 19 60
- 1.523533 1 0 ack 40 ------- 0 3.0 0.0 19 60
r 1.530133 1 0 ack 40 ------- 0 3.0 0.0 19 60
+ 1.530133 0 1 tcp 1040 ------- 0 0.0 3.0 24 61
r 1.538267 2 3 tcp 1040 ------- 0 0.0 3.0 19 52
+ 1.538267 3 2 ack 40 ------- 0 3.0 0.0 19 62
- 1.538267 3 2 ack 40 ------- 0 3.0 0.0 19 62
- 1.542933 0 1 tcp 1040 ------- 0 0.0 3.0 23 59
r 1.544067 1 2 tcp 1040 ------- 0 0.0 3.0 20 54
+ 1.544067 2 3 tcp 1040 ------- 0 0.0 3.0 20 54
- 1.544067 2 3 tcp 1040 ------- 0 0.0 3.0 20 54
r 1.547933 0 1 tcp 1040 ------- 0 0.0 3.0 21 56
+ 1.547933 1 2 tcp 1040 ------- 0 0.0 3.0 21 56
- 1.547933 1 2 tcp 1040 ------- 0 0.0 3.0 21 56
r 1.554067 3 2 ack 40 ------- 0 3.0 0.0 19 62
+ 1.554067 2 1 ack 40 ------- 0 3.0 0.0 19 62
- 1.554067 2 1 ack 40 ------- 0 3.0 0.0 19 62
r 1.565133 2 1 ack 40 ------- 0 3.0 0.0 19 62
+ 1.565133 1 0 ack 40 ------- 0 3.0 0.0 19 62
- 1.565133 1 0 ack 40 ------- 0 3.0 0.0 19 62
r 1.571733 1 0 ack 40 ------- 0 3.0 0.0 19 62
+ 1.571733 0 1 tcp 1040 ------- 0 0.0 3.0 25 63
r 1.579867 2 3 tcp 1040 ------- 0 0.0 3.0 20 54
+ 1.579867 3 2 ack 40 ------- 0 3.0 0.0 22 64
- 1.579867 3 2 ack 40 ------- 0 3.0 0.0 22 64
- 1.584533 0 1 tcp 1040 ------- 0 0.0 3.0 24 61
r 1.585667 1 2 tcp 1040 ------- 0 0.0 3.0 21 56
+ 1.585667 2 3 tcp 1040 ------- 0 0.0 3.0 21 56
- 1.585667 2 3 tcp 1040 ------- 0 0.0 3.0 21 56
r 1.589533 0 1 tcp 1040 ------- 0 0.0 3.0 23 59
+ 1.589533 1 2 tcp 1040 ------- 0 0.0 3.0 23 59
- 1.589533 1 2 tcp 1040 ------- 0 0.0 3.0 23 59
r 1.595667 3 2 ack 40 ------- 0 3.0 0.0 22 64
+ 1.595667 2 1 ack 40 ------- 0 3.0 0.0 22 64
- 1.595667 2 1 ack 40 ------- 0 3.0 0.0 22 64
r 1.606733 2 1 ack 40 ------- 0 3.0 0.0 22 64
+ 1.606733 1 0 ack 40 ------- 0 3.0 0.0 22 64
- 1.606733 1 0 ack 40 ------- 0 3.0 0.0 22 64
r 1.613333 1 0 ack 40 ------- 0 3.0 0.0 22 64
+ 1.613333 0 1 tcp 1040 ------- 0 0.0 3.0 26 65
+ 1.613333 0 1 tcp 1040 ------- 0 0.0 3.0 27 66
d 1.613333 0 1 tcp 1040 ------- 0 0.0 3.0 27 66
r 1.621467 2 3 tcp 1040 ------- 0 0.0 3.0 21 56
+ 1.621467 3 2 ack 40 ------- 0 3.0 0.0 22 67
- 1.621467 3 2 ack 40 ------- 0 3.0 0.0 22 67
- 1.626133 0 1 tcp 1040 ------- 0 0.0 3.0 25 63
r 1.627267 1 2 tcp 1040 ------- 0 0.0 3.0 23 59
+ 1.627267 2 3 tcp 1040 ------- 0 0.0 3.0 23 59
- 1.627267 2 3 tcp 1040 ------- 0 0.0 3.0 23 59
r 1.631133 0 1 tcp 1040 ------- 0 0.0 3.0 24 61
+ 1.631133 1 2 tcp 1040 ------- 0 0.0 3.0 24 61
- 1.631133 1 2 tcp 1040 ------- 0 0.0 3.0 24 61
r 1.637267 3 2 ack 40 ------- 0 3.0 0.0 22 67
+ 1.637267 2 1 ack 40 ------- 0 3.0 0.0 22 67
- 1.637267 2 1 ack 40 ------- 0 3.0 0.0 22 67
r 1.648333 2 1 ack 40 ------- 0 3.0 0.0 22 67
+ 1.648333 1 0 ack 40 ------- 0 3.0 0.0 22 67
- 1.648333 1 0 ack 40 ------- 0 3.0 0.0 22 67
r 1.654933 1 0 ack 40 ------- 0 3.0 0.0 22 67
+ 1.654933 0 1 tcp 1040 ------- 0 0.0 3.0 28 68
r 1.663067 2 3 tcp 1040 ------- 0 0.0 3.0 23 59
+ 1.663067 3 2 ack 40 ------- 0 3.0 0.0 23 69
- 1.663067 3 2 ack 40 ------- 0 3.0 0.0 23 69
- 1.667733 0 1 tcp 1040 ------- 0 0.0 3.0 26 65
r 1.668867 1 2 tcp 1040 ------- 0 0.0 3.0 24 61
+ 1.668867 2 3 tcp 1040 ------- 0 0.0 3.0 24 61
- 1.668867 2 3 tcp 1040 ------- 0 0.0 3.0 24 61
r 1.672733 0 1 tcp 1040 ------- 0 0.0 3.0 25 63
+ 1.672733 1 2 tcp 1040 ------- 0 0.0 3.0 25 63
- 1.672733 1 2 tcp 1040 ------- 0 0.0 3.0 25 63
r 1.678867 3 2 ack 40 ------- 0 3.0 0.0 23 69
+ 1.678867 2 1 ack 40 ------- 0 3.0 0.0 23 69
- 1.678867 2 1 ack 40 ------- 0 3.0 0.0 23 69
r 1.689933 2 1 ack 40 ------- 0 3.0 0.0 23 69
+ 1.689933 1 0 ack 40 ------- 0 3.0 0.0 23 69
- 1.689933 1 0 ack 40 ------- 0 3.0 0.0 23 69
r 1.696533 1 0 ack 40 ------- 0 3.0 0.0 23 69
r 1.704667 2 3 tcp 1040 ------- 0 0.0 3.0 24 61
+ 1.704667 3 2 ack 40 ------- 0 3.0 0.0 24 70
- 1.704667 3 2 ack 40 ------- 0 3.0 0.0 24 70
- 1.709333 0 1 tcp 1040 ------- 0 0.0 3.0 28 68
r 1.710467 1 2 tcp 1040 ------- 0 0.0 3.0 25 63
+ 1.710467 2 3 tcp 1040 ------- 0 0.0 3.0 25 63
- 1.710467 2 3 tcp 1040 ------- 0 0.0 3.0 25 63
r 1.714333 0 1 tcp 1040 ------- 0 0.0 3.0 26 65
+ 1.714333 1 2 tcp 1040 ------- 0 0.0 3.0 26 65
- 1.714333 1 2 tcp 1040 ------- 0 0.0 3.0 26 65
r 1.720467 3 2 ack 40 ------- 0 3.0 0.0 24 70
+ 1.720467 2 1 ack 40 ------- 0 3.0 0.0 24 70
- 1.720467 2 1 ack 40 ------- 0 3.0 0.0 24 70
r 1.731533 2 1 ack 40 ------- 0 3.0 0.0 24 70
+ 1.731533 1 0 ack 40 ------- 0 3.0 0.0 24 70
- 1.731533 1 0 ack 40 ------- 0 3.0 0.0 24 70
r 1.738133 1 0 ack 40 ------- 0 3.0 0.0 24 70
+ 1.738133 0 1 tcp 1040 ------- 0 0.0 3.0 29 71
r 1.746267 2 3 tcp 1040 ------- 0 0.0 3.0 25 63
+ 1.746267 3 2 ack 40 ------- 0 3.0 0.0 25 72
- 1.746267 3 2 ack 40 ------- 0 3.0 0.0 25 72
- 1.750933 0 1 tcp 1040 ------- 0 0.0 3.0 29 71
r 1.752067 1 2 tcp 1040 ------- 0 0.0 3.0 26 65
+ 1.752067 2 3 tcp 1040 ------- 0 0.0 3.0 26 65
- 1.752067 2 3 tcp 1040 ------- 0 0.0 3.0 26 65
r 1.755933 0 1 tcp 1040 ------- 0 0.0 3.0 28 68
+ 1.755933 1 2 tcp 1040 ------- 0 0.0 3.0 28 68
- 1.755933 1 2 tcp 1040 ------- 0 0.0 3.0 28 68
r 1.762067 3 2 ack 40 ------- 0 3.0 0.0 25 72
+ 1.762067 2 1 ack 40 ------- 0 3.0 0.0 25 72
- 1.762067 2 1 ack 40 ------- 0 3.0 0.0 25 72
r 1.773133 2 1 ack 40 ------- 0 3.0 0.0 25 72
+ 1.773133 1 0 ack 40 ------- 0 3.0 0.0 25 72
- 1.773133 1 0 ack 40 ------- 0 3.0 0.0 25 72
r 1.779733 1 0 ack 40 ------- 0 3.0 0.0 25 72
+ 1.779733 0 1 tcp 1040 ------- 0 0.0 3.0 30 73
r 1.787867 2 3 tcp 1040 ------- 0 0.0 3.0 26 65
+ 1.787867 3 2 ack 40 ------- 0 3.0 0.0 26 74
- 1.787867 3 2 ack 40 ------- 0 3.0 0.0 26 74
- 1.792533 0 1 tcp 1040 ------- 0 0.0 3.0 30 73
r 1.793667 1 2 tcp 1040 ------- 0 0.0 3.0 28 68
+ 1.793667 2 3 tcp 1040 ------- 0 0.0 3.0 28 68
- 1.793667 2 3 tcp 1040 ------- 0 0.0 3.0 28 68
r 1.797533 0 1 tcp 1040 ------- 0 0.0 3.0 29 71
+ 1.797533 1 2 tcp 1040 ------- 0 0.0 3.0 29 71
- 1.797533 1 2 tcp 1040 ------- 0 0.0 3.0 29 71
r 1.803667 3 2 ack 40 ------- 0 3.0 0.0 26 74
+ 1.803667 2 1 ack 40 ------- 0 3.0 0.0 26 74
- 1.803667 2 1 ack 40 ------- 0 3.0 0.0 26 74
r 1.814733 2 1 ack 40 ------- 0 3.0 0.0 26 74
+ 1.814733 1 0 ack 40 ------- 0 3.0 0.0 26 74
- 1.814733 1 0 ack 40 ------- 0 3.0 0.0 26 74
r 1.821333 1 0 ack 40 ------- 0 3.0 0.0 26 74
+ 1.821333 0 1 tcp 1040 ------- 0 0.0 3.0 31 75
+ 1.821333 0 1 tcp 1040 ------- 0 0.0 3.0 32 76
r 1.829467 2 3 tcp 1040 ------- 0 0.0 3.0 28 68
+ 1.829467 3 2 ack 40 ------- 0 3.0 0.0 26 77
- 1.829467 3 2 ack 40 ------- 0 3.0 0.0 26 77
- 1.834133 0 1 tcp 1040 ------- 0 0.0 3.0 31 75
r 1.835267 1 2 tcp 1040 ------- 0 0.0 3.0 29 71
+ 1.835267 2 3 tcp 1040 ------- 0 0.0 3.0 29 71
- 1.835267 2 3 tcp 1040 ------- 0 0.0 3.0 29 71
r 1.839133 0 1 tcp 1040 ------- 0 0.0 3.0 30 73
+ 1.839133 1 2 tcp 1040 ------- 0 0.0 3.0 30 73
- 1.839133 1 2 tcp 1040 ------- 0 0.0 3.0 30 73
r 1.845267 3 2 ack 40 ------- 0 3.0 0.0 26 77
+ 1.845267 2 1 ack 40 ------- 0 3.0 0.0 26 77
- 1.845267 2 1 ack 40 ------- 0 3.0 0.0 26 77
r 1.856333 2 1 ack 40 ------- 0 3.0 0.0 26 77
+ 1.856333 1 0 ack 40 ------- 0 3.0 0.0 26 77
- 1.856333 1 0 ack 40 ------- 0 3.0 0.0 26 77
r 1.862933 1 0 ack 40 ------- 0 3.0 0.0 26 77
+ 1.862933 0 1 tcp 1040 ------- 0 0.0 3.0 33 78
r 1.871067 2 3 tcp 1040 ------- 0 0.0 3.0 29 71
+ 1.871067 3 2 ack 40 ------- 0 3.0 0.0 26 79
- 1.871067 3 2 ack 40 ------- 0 3.0 0.0 26 79
- 1.875733 0 1 tcp 1040 ------- 0 0.0 3.0 32 76
r 1.876867 1 2 tcp 1040 ------- 0 0.0 3.0 30 73
+ 1.876867 2 3 tcp 1040 ------- 0 0.0 3.0 30 73
- 1.876867 2 3 tcp 1040 ------- 0 0.0 3.0 30 73
r 1.880733 0 1 tcp 1040 ------- 0 0.0 3.0 31 75
+ 1.880733 1 2 tcp 1040 ------- 0 0.0 3.0 31 75
- 1.880733 1 2 tcp 1040 ------- 0 0.0 3.0 31 75
r 1.886867 3 2 ack 40 ------- 0 3.0 0.0 26 79
+ 1.886867 2 1 ack 40 ------- 0 3.0 0.0 26 79
- 1.886867 2 1 ack 40 ------- 0 3.0 0.0 26 79
r 1.897933 2 1 ack 40 ------- 0 3.0 0.0 26 79
+ 1.897933 1 0 ack 40 ------- 0 3.0 0.0 26 79
- 1.897933 1 0 ack 40 ------- 0 3.0 0.0 26 79
r 1.904533 1 0 ack 40 ------- 0 3.0 0.0 26 79
+ 1.904533 0 1 tcp 1040 ------- 0 0.0 3.0 34 80